       N       E                     dE             d eps       ncg     rms          rms(c)
DAV:   1     0.102860908956E+04    0.10286E+04   -0.58314E+04 19288   0.103E+03
DAV:   2    -0.292584915402E+02   -0.10579E+04   -0.98326E+03 23984   0.259E+02
DAV:   3    -0.121062053604E+03   -0.91804E+02   -0.84937E+02 23072   0.759E+01
DAV:   4    -0.125525493798E+03   -0.44634E+01   -0.42454E+01 25656   0.170E+01
DAV:   5    -0.125663803570E+03   -0.13831E+00   -0.13713E+00 26328   0.294E+00    0.431E+01
DAV:   6    -0.118074943470E+03    0.75889E+01   -0.36112E+01 23476   0.247E+01    0.319E+01
DAV:   7    -0.137773645534E+03   -0.19699E+02   -0.84464E+01 22940   0.535E+01    0.431E+01
DAV:   8    -0.120017744807E+03    0.17756E+02   -0.54310E+01 24888   0.393E+01    0.207E+01
DAV:   9    -0.130426802547E+03   -0.10409E+02   -0.73020E+01 28796   0.451E+01    0.310E+01
DAV:  10    -0.120720154191E+03    0.97066E+01   -0.51303E+01 27000   0.359E+01    0.219E+01
DAV:  11    -0.116716455304E+03    0.40037E+01   -0.20553E+01 28748   0.182E+01    0.117E+01
DAV:  12    -0.115876579170E+03    0.83988E+00   -0.53943E+00 28016   0.989E+00    0.713E+00
DAV:  13    -0.115593949309E+03    0.28263E+00   -0.16062E+00 27732   0.540E+00    0.444E+00
DAV:  14    -0.115491764573E+03    0.10218E+00   -0.62392E-01 25712   0.389E+00    0.329E+00
DAV:  15    -0.115467431447E+03    0.24333E-01   -0.71270E-02 23124   0.124E+00    0.245E+00
DAV:  16    -0.115445013060E+03    0.22418E-01   -0.45936E-02 21728   0.114E+00    0.127E+00
DAV:  17    -0.115432998742E+03    0.12014E-01   -0.56988E-02 22008   0.111E+00    0.876E-01
DAV:  18    -0.115429339356E+03    0.36594E-02   -0.25761E-02 21172   0.726E-01    0.343E-01
DAV:  19    -0.115428649347E+03    0.69001E-03   -0.31987E-03 21496   0.268E-01    0.229E-01
DAV:  20    -0.115427921371E+03    0.72798E-03   -0.20504E-03 21504   0.201E-01    0.190E-01
DAV:  21    -0.115427649740E+03    0.27163E-03   -0.93635E-04 21656   0.147E-01    0.138E-01
DAV:  22    -0.115427506714E+03    0.14303E-03   -0.59365E-04 21856   0.105E-01    0.704E-02
DAV:  23    -0.115427487961E+03    0.18754E-04   -0.22208E-04 22152   0.666E-02    0.491E-02
DAV:  24    -0.115427631409E+03   -0.14345E-03   -0.19734E-04 21792   0.635E-02    0.528E-02
DAV:  25    -0.115427731180E+03   -0.99772E-04   -0.66766E-05 16588   0.358E-02    0.408E-02
DAV:  26    -0.115427816071E+03   -0.84891E-04   -0.30075E-05 13036   0.261E-02    0.262E-02
DAV:  27    -0.115427940678E+03   -0.12461E-03   -0.39601E-05 15820   0.221E-02    0.206E-02
DAV:  28    -0.115428111289E+03   -0.17061E-03   -0.25465E-05 14604   0.167E-02    0.241E-02
DAV:  29    -0.115428282011E+03   -0.17072E-03   -0.25183E-05 13900   0.199E-02    0.101E-02
DAV:  30    -0.115428373645E+03   -0.91634E-04   -0.74083E-06 12352   0.925E-03    0.123E-02
DAV:  31    -0.115428454955E+03   -0.81310E-04   -0.45733E-06 12340   0.816E-03    0.670E-03
DAV:  32    -0.115428519987E+03   -0.65031E-04   -0.31812E-06 12340   0.631E-03    0.478E-03
DAV:  33    -0.115428549342E+03   -0.29355E-04   -0.17607E-06 12156   0.511E-03    0.573E-03
DAV:  34    -0.115428580498E+03   -0.31157E-04   -0.15956E-06 12060   0.465E-03    0.219E-03
DAV:  35    -0.115428596018E+03   -0.15519E-04   -0.67352E-07 11768   0.291E-03    0.263E-03
DAV:  36    -0.115428599560E+03   -0.35423E-05   -0.18696E-07 10644   0.141E-03
   1 F= -.11542248E+03 E0= -.11541591E+03  d E =-.196946E-01
