 vasp.5.4.4.18Apr17-6-g9f103f2a35 (build Apr 28 2017 10:53:45) complex          
  
 executed on             LinuxIFC date 2019.07.18  18:10:55
 running on   16 total cores
 distrk:  each k-point on   16 cores,    1 groups
 distr:  one band on NCORES_PER_BAND=   4 cores,    4 groups


--------------------------------------------------------------------------------------------------------


 INCAR:
 POTCAR:    PAW_PBE Au 04Oct2007                  
 POTCAR:    PAW_PBE C 08Apr2002                   
 POTCAR:    PAW_PBE H 15Jun2001                   
 POTCAR:    PAW_PBE Ir 06Sep2000                  
 POTCAR:    PAW_PBE Pt 04Feb2005                  
 POTCAR:    PAW_PBE Au 04Oct2007                  
   VRHFIN =Au: s1d10                                                            
   LEXCH  = PE                                                                  
   EATOM  =   926.0867 eV,   68.0654 Ry                                         
                                                                                
   TITEL  = PAW_PBE Au 04Oct2007                                                
   LULTRA =        F    use ultrasoft PP ?                                      
   IUNSCR =        1    unscreen: 0-lin 1-nonlin 2-no                           
   RPACOR =    2.330    partial core radius                                     
   POMASS =  196.966; ZVAL   =   11.000    mass and valenz                      
   RCORE  =    2.500    outmost cutoff radius                                   
   RWIGS  =    2.840; RWIGS  =    1.503    wigner-seitz radius (au A)           
   ENMAX  =  229.943; ENMIN  =  172.457 eV                                      
   ICORE  =        3    local potential                                         
   LCOR   =        T    correct aug charges                                     
   LPAW   =        T    paw PP                                                  
   EAUG   =  356.670                                                            
   DEXC   =    0.000                                                            
   RMAX   =    2.562    core radius for proj-oper                               
   RAUG   =    1.300    factor for augmentation sphere                          
   RDEP   =    2.598    radius for radial grids                                 
   RDEPT  =    2.193    core radius for aug-charge                              
                                                                                
   Atomic configuration                                                         
   16 entries                                                                   
     n  l   j            E        occ.                                          
     1  0  0.50    -80748.5001   2.0000                                         
     2  0  0.50    -14244.7466   2.0000                                         
     2  1  1.50    -12310.9591   6.0000                                         
     3  0  0.50     -3362.1768   2.0000                                         
     3  1  1.50     -2801.5463   6.0000                                         
     3  2  2.50     -2203.8206  10.0000                                         
     4  0  0.50      -729.8168   2.0000                                         
     4  1  1.50      -546.0527   6.0000                                         
     4  2  2.50      -325.7302  10.0000                                         
     4  3  3.50       -81.1472  14.0000                                         
     5  0  0.50      -108.3201   2.0000                                         
     5  1  1.50       -59.7479   6.0000                                         
     5  2  2.50        -6.8783  10.0000                                         
     6  0  0.50        -5.7602   1.0000                                         
     6  1  1.50        -6.8029   0.0000                                         
     5  3  2.50        -1.3606   0.0000                                         
   Description                                                                  
     l       E           TYP  RCUT    TYP  RCUT                                 
     2     -6.8782861     23  2.500                                             
     2     -8.2388687     23  2.500                                             
     0     -5.7601759     23  2.500                                             
     0     -0.8493231     23  2.500                                             
     1     -2.7211652     23  2.500                                             
     1     27.2116520     23  2.500                                             
     3     -1.3605826     23  2.500                                             
  local pseudopotential read in
  partial core-charges read in
  partial kinetic energy density read in
  atomic valenz-charges read in
  non local Contribution for L=           2  read in
    real space projection operators read in
  non local Contribution for L=           2  read in
    real space projection operators read in
  non local Contribution for L=           0  read in
    real space projection operators read in
  non local Contribution for L=           0  read in
    real space projection operators read in
  non local Contribution for L=           1  read in
    real space projection operators read in
  non local Contribution for L=           1  read in
    real space projection operators read in
    PAW grid and wavefunctions read in
 
   number of l-projection  operators is LMAX  =           6
   number of lm-projection operators is LMMAX =          18
 
 POTCAR:    PAW_PBE C 08Apr2002                   
   VRHFIN =C: s2p2                                                              
   LEXCH  = PE                                                                  
   EATOM  =   147.1560 eV,   10.8157 Ry                                         
                                                                                
   TITEL  = PAW_PBE C 08Apr2002                                                 
   LULTRA =        F    use ultrasoft PP ?                                      
   IUNSCR =        1    unscreen: 0-lin 1-nonlin 2-no                           
   RPACOR =    1.200    partial core radius                                     
   POMASS =   12.011; ZVAL   =    4.000    mass and valenz                      
   RCORE  =    1.500    outmost cutoff radius                                   
   RWIGS  =    1.630; RWIGS  =    0.863    wigner-seitz radius (au A)           
   ENMAX  =  400.000; ENMIN  =  300.000 eV                                      
   ICORE  =        2    local potential                                         
   LCOR   =        T    correct aug charges                                     
   LPAW   =        T    paw PP                                                  
   EAUG   =  644.873                                                            
   DEXC   =    0.000                                                            
   RMAX   =    1.529    core radius for proj-oper                               
   RAUG   =    1.300    factor for augmentation sphere                          
   RDEP   =    1.501    radius for radial grids                                 
   RDEPT  =    1.300    core radius for aug-charge                              
                                                                                
   Atomic configuration                                                         
    4 entries                                                                   
     n  l   j            E        occ.                                          
     1  0  0.50      -273.3789   2.0000                                         
     2  0  0.50       -13.7508   2.0000                                         
     2  1  0.50        -5.2854   2.0000                                         
     3  2  1.50        -5.4423   0.0000                                         
   Description                                                                  
     l       E           TYP  RCUT    TYP  RCUT                                 
     0    -13.7508458     23  1.200                                             
     0     -8.2022199     23  1.200                                             
     1     -5.2854383     23  1.500                                             
     1     34.0145650     23  1.500                                             
     2     -5.4423304      7  1.500                                             
  local pseudopotential read in
  partial core-charges read in
  partial kinetic energy density read in
  atomic valenz-charges read in
  non local Contribution for L=           0  read in
    real space projection operators read in
  non local Contribution for L=           0  read in
    real space projection operators read in
  non local Contribution for L=           1  read in
    real space projection operators read in
  non local Contribution for L=           1  read in
    real space projection operators read in
    PAW grid and wavefunctions read in
 
   number of l-projection  operators is LMAX  =           4
   number of lm-projection operators is LMMAX =           8
 
 POTCAR:    PAW_PBE H 15Jun2001                   
   VRHFIN =H: ultrasoft test                                                    
   LEXCH  = PE                                                                  
   EATOM  =    12.4884 eV,    0.9179 Ry                                         
                                                                                
   TITEL  = PAW_PBE H 15Jun2001                                                 
   LULTRA =        F    use ultrasoft PP ?                                      
   IUNSCR =        0    unscreen: 0-lin 1-nonlin 2-no                           
   RPACOR =    0.000    partial core radius                                     
   POMASS =    1.000; ZVAL   =    1.000    mass and valenz                      
   RCORE  =    1.100    outmost cutoff radius                                   
   RWIGS  =    0.700; RWIGS  =    0.370    wigner-seitz radius (au A)           
   ENMAX  =  250.000; ENMIN  =  200.000 eV                                      
   RCLOC  =    0.701    cutoff for local pot                                    
   LCOR   =        T    correct aug charges                                     
   LPAW   =        T    paw PP                                                  
   EAUG   =  400.000                                                            
   RMAX   =    1.123    core radius for proj-oper                               
   RAUG   =    1.200    factor for augmentation sphere                          
   RDEP   =    1.112    radius for radial grids                                 
   RDEPT  =    0.926    core radius for aug-charge                              
                                                                                
   Atomic configuration                                                         
    2 entries                                                                   
     n  l   j            E        occ.                                          
     1  0  0.50        -6.4927   1.0000                                         
     2  1  0.50        -3.4015   0.0000                                         
   Description                                                                  
     l       E           TYP  RCUT    TYP  RCUT                                 
     0     -6.4927494     23  1.100                                             
     0      6.8029130     23  1.100                                             
     1     -4.0817478     23  1.100                                             
  local pseudopotential read in
  atomic valenz-charges read in
  non local Contribution for L=           0  read in
    real space projection operators read in
  non local Contribution for L=           0  read in
    real space projection operators read in
  non local Contribution for L=           1  read in
    real space projection operators read in
    PAW grid and wavefunctions read in
 
   number of l-projection  operators is LMAX  =           3
   number of lm-projection operators is LMMAX =           5
 
 POTCAR:    PAW_PBE Ir 06Sep2000                  
   VRHFIN =Ir: s1d8                                                             
   LEXCH  = PE                                                                  
   EATOM  =   560.1833 eV,   41.1723 Ry                                         
                                                                                
   TITEL  = PAW_PBE Ir 06Sep2000                                                
   LULTRA =        F    use ultrasoft PP ?                                      
   IUNSCR =        1    unscreen: 0-lin 1-nonlin 2-no                           
   RPACOR =    2.250    partial core radius                                     
   POMASS =  192.220; ZVAL   =    9.000    mass and valenz                      
   RCORE  =    2.600    outmost cutoff radius                                   
   RWIGS  =    2.690; RWIGS  =    1.423    wigner-seitz radius (au A)           
   ENMAX  =  210.864; ENMIN  =  158.148 eV                                      
   RCLOC  =    1.857    cutoff for local pot                                    
   LCOR   =        T    correct aug charges                                     
   LPAW   =        T    paw PP                                                  
   EAUG   =  318.962                                                            
   DEXC   =    0.000                                                            
   RMAX   =    2.667    core radius for proj-oper                               
   RAUG   =    1.300    factor for augmentation sphere                          
   RDEP   =    2.748    radius for radial grids                                 
   RDEPT  =    2.300    core radius for aug-charge                              
                                                                                
   Atomic configuration                                                         
   16 entries                                                                   
     n  l   j            E        occ.                                          
     1  0  0.50    -76100.0449   2.0000                                         
     2  0  0.50    -13308.1683   2.0000                                         
     2  1  1.50    -11558.0021   6.0000                                         
     3  0  0.50     -3110.7274   2.0000                                         
     3  1  1.50     -2599.2109   6.0000                                         
     3  2  2.50     -2037.1515  10.0000                                         
     4  0  0.50      -661.6001   2.0000                                         
     4  1  1.50      -493.8981   6.0000                                         
     4  2  2.50      -288.1909  10.0000                                         
     4  3  3.50       -59.5718  14.0000                                         
     5  0  0.50       -95.3879   2.0000                                         
     5  1  1.50       -52.2747   6.0000                                         
     5  2  2.50        -5.4180   8.0000                                         
     6  0  0.50        -5.5479   1.0000                                         
     6  1  1.50        -6.8029   0.0000                                         
     5  3  2.50        -1.3606   0.0000                                         
   Description                                                                  
     l       E           TYP  RCUT    TYP  RCUT                                 
     2     -5.4179967     23  2.600                                             
     2     -6.7785793     23  2.600                                             
     0     -5.5478636     23  2.600                                             
     0      2.2542272     23  2.600                                             
     1     -2.7211652     23  2.600                                             
     1     20.4087390     23  2.600                                             
  local pseudopotential read in
  partial core-charges read in
  partial kinetic energy density read in
  atomic valenz-charges read in
  non local Contribution for L=           2  read in
    real space projection operators read in
  non local Contribution for L=           2  read in
    real space projection operators read in
  non local Contribution for L=           0  read in
    real space projection operators read in
  non local Contribution for L=           0  read in
    real space projection operators read in
  non local Contribution for L=           1  read in
    real space projection operators read in
  non local Contribution for L=           1  read in
    real space projection operators read in
    PAW grid and wavefunctions read in
 
   number of l-projection  operators is LMAX  =           6
   number of lm-projection operators is LMMAX =          18
 
 POTCAR:    PAW_PBE Pt 04Feb2005                  
   VRHFIN =Pt: s1d9                                                             
   LEXCH  = PE                                                                  
   EATOM  =   729.1176 eV,   53.5886 Ry                                         
                                                                                
   TITEL  = PAW_PBE Pt 04Feb2005                                                
   LULTRA =        F    use ultrasoft PP ?                                      
   IUNSCR =        1    unscreen: 0-lin 1-nonlin 2-no                           
   RPACOR =    2.330    partial core radius                                     
   POMASS =  195.080; ZVAL   =   10.000    mass and valenz                      
   RCORE  =    2.600    outmost cutoff radius                                   
   RWIGS  =    2.750; RWIGS  =    1.455    wigner-seitz radius (au A)           
   ENMAX  =  230.283; ENMIN  =  172.712 eV                                      
   ICORE  =        3    local potential                                         
   LCOR   =        T    correct aug charges                                     
   LPAW   =        T    paw PP                                                  
   EAUG   =  358.966                                                            
   DEXC   =    0.000                                                            
   RMAX   =    2.658    core radius for proj-oper                               
   RAUG   =    1.300    factor for augmentation sphere                          
   RDEP   =    2.761    radius for radial grids                                 
   RDEPT  =    2.203    core radius for aug-charge                              
                                                                                
   Atomic configuration                                                         
   16 entries                                                                   
     n  l   j            E        occ.                                          
     1  0  0.50    -78401.1885   2.0000                                         
     2  0  0.50    -13770.7750   2.0000                                         
     2  1  1.50    -11931.0468   6.0000                                         
     3  0  0.50     -3234.7234   2.0000                                         
     3  1  1.50     -2699.2216   6.0000                                         
     3  2  2.50     -2119.5714  10.0000                                         
     4  0  0.50      -695.1528   2.0000                                         
     4  1  1.50      -519.6034   6.0000                                         
     4  2  2.50      -306.6786  10.0000                                         
     4  3  3.50       -70.1041  14.0000                                         
     5  0  0.50      -101.7747   2.0000                                         
     5  1  1.50       -55.9873   6.0000                                         
     5  2  2.50        -6.1423   9.0000                                         
     6  0  0.50        -5.6573   1.0000                                         
     6  1  1.50        -6.8029   0.0000                                         
     5  3  2.50        -1.3606   0.0000                                         
   Description                                                                  
     l       E           TYP  RCUT    TYP  RCUT                                 
     2     -6.1423404     23  2.500                                             
     2     -7.5029230     23  2.500                                             
     0     -5.6573207     23  2.500                                             
     0      0.7416693     23  2.500                                             
     1     -2.7211652     23  2.600                                             
     1     20.4087390     23  2.600                                             
     3     -1.3605826     23  2.500                                             
  local pseudopotential read in
  partial core-charges read in
  partial kinetic energy density read in
  atomic valenz-charges read in
  non local Contribution for L=           2  read in
    real space projection operators read in
  non local Contribution for L=           2  read in
    real space projection operators read in
  non local Contribution for L=           0  read in
    real space projection operators read in
  non local Contribution for L=           0  read in
    real space projection operators read in
  non local Contribution for L=           1  read in
    real space projection operators read in
  non local Contribution for L=           1  read in
    real space projection operators read in
    PAW grid and wavefunctions read in
 
   number of l-projection  operators is LMAX  =           6
   number of lm-projection operators is LMMAX =          18
 
 Optimization of the real space projectors (new method)

 maximal supplied QI-value         = 15.12
 optimisation between [QCUT,QGAM] = [  9.52, 19.05] = [ 25.40,101.61] Ry 
 Optimized for a Real-space Cutoff    1.57 Angstroem

   l    n(q)    QCUT    max X(q) W(low)/X(q) W(high)/X(q)  e(spline) 
   2      8     9.524    60.898    0.38E-03    0.43E-04    0.84E-07
   2      8     9.524    58.894    0.38E-03    0.47E-04    0.88E-07
   0      9     9.524   109.617    0.60E-04    0.64E-04    0.80E-07
   0      9     9.524    75.026    0.59E-04    0.62E-04    0.78E-07
   1      8     9.524    16.344    0.99E-04    0.18E-03    0.87E-07
   1      8     9.524    10.160    0.78E-04    0.15E-03    0.74E-07
 Optimization of the real space projectors (new method)

 maximal supplied QI-value         = 25.13
 optimisation between [QCUT,QGAM] = [  9.55, 19.10] = [ 25.54,102.17] Ry 
 Optimized for a Real-space Cutoff    1.39 Angstroem

   l    n(q)    QCUT    max X(q) W(low)/X(q) W(high)/X(q)  e(spline) 
   0      8     9.551   115.676    0.39E-03    0.54E-03    0.29E-06
   0      8     9.551    87.132    0.39E-03    0.54E-03    0.28E-06
   1      7     9.551     4.429    0.35E-03    0.51E-04    0.29E-06
   1      7     9.551     2.733    0.22E-03    0.42E-04    0.31E-06
 Optimization of the real space projectors (new method)

 maximal supplied QI-value         = 34.20
 optimisation between [QCUT,QGAM] = [  9.58, 19.15] = [ 25.68,102.74] Ry 
 Optimized for a Real-space Cutoff    1.31 Angstroem

   l    n(q)    QCUT    max X(q) W(low)/X(q) W(high)/X(q)  e(spline) 
   0      7     9.577    19.460    0.33E-03    0.12E-03    0.35E-06
   0      7     9.577    12.209    0.33E-03    0.11E-03    0.33E-06
   1      7     9.577     4.655    0.39E-03    0.14E-02    0.33E-06
 Optimization of the real space projectors (new method)

 maximal supplied QI-value         = 14.36
 optimisation between [QCUT,QGAM] = [  9.48, 19.10] = [ 25.16,102.17] Ry 
 Optimized for a Real-space Cutoff    1.57 Angstroem

   l    n(q)    QCUT    max X(q) W(low)/X(q) W(high)/X(q)  e(spline) 
   2      8     9.479   134.116    0.18E-03    0.75E-03    0.26E-06
   2      8     9.479   130.192    0.18E-03    0.75E-03    0.27E-06
   0      9     9.479    60.310    0.39E-03    0.24E-03    0.63E-07
   0      9     9.479    39.218    0.36E-03    0.22E-03    0.59E-07
   1      8     9.479    18.439    0.20E-03    0.15E-03    0.16E-06
   1      8     9.479    12.760    0.16E-03    0.11E-03    0.13E-06
 Optimization of the real space projectors (new method)

 maximal supplied QI-value         = 14.36
 optimisation between [QCUT,QGAM] = [  9.48, 19.10] = [ 25.16,102.17] Ry 
 Optimized for a Real-space Cutoff    1.57 Angstroem

   l    n(q)    QCUT    max X(q) W(low)/X(q) W(high)/X(q)  e(spline) 
   2      8     9.479    66.195    0.35E-03    0.53E-04    0.87E-07
   2      8     9.479    64.643    0.35E-03    0.57E-04    0.91E-07
   0      9     9.479    95.520    0.50E-04    0.62E-04    0.81E-07
   0      9     9.479    63.403    0.49E-04    0.60E-04    0.78E-07
   1      8     9.479    19.961    0.10E-03    0.87E-04    0.11E-06
   1      8     9.479    13.289    0.88E-04    0.71E-04    0.97E-07
  PAW_PBE Au 04Oct2007                  :
 energy of atom  1       EATOM= -926.0867
 kinetic energy error for atom=    0.0152 (will be added to EATOM!!)
  PAW_PBE C 08Apr2002                   :
 energy of atom  2       EATOM= -147.1560
 kinetic energy error for atom=    0.0854 (will be added to EATOM!!)
  PAW_PBE H 15Jun2001                   :
 energy of atom  3       EATOM=  -12.4884
 kinetic energy error for atom=    0.0203 (will be added to EATOM!!)
  PAW_PBE Ir 06Sep2000                  :
 energy of atom  4       EATOM= -560.1833
 kinetic energy error for atom=    0.0056 (will be added to EATOM!!)
  PAW_PBE Pt 04Feb2005                  :
 energy of atom  5       EATOM= -729.1176
 kinetic energy error for atom=    0.0144 (will be added to EATOM!!)
 
 
 POSCAR: Au  C  H Ir Pt                          
  positions in cartesian coordinates
  No initial velocities read in
 exchange correlation table for  LEXCH =        8
   RHO(1)=    0.500       N(1)  =     2000
   RHO(2)=  100.500       N(2)  =     4000
 


--------------------------------------------------------------------------------------------------------


 ion  position               nearest neighbor table
   1  0.841  0.830  0.546-  13 2.75  15 2.75  10 2.76  11 2.77  11 2.79   8 2.80  10 2.80  13 2.81
                            16 2.84   9 2.85  20 2.88  14 3.00
   2  0.997  0.976  0.696-   4 1.10   5 1.10   3 1.10  14 2.08
   3  0.877  0.189  0.709-   2 1.10
   4  0.899  0.855  0.706-   2 1.10
   5  0.213  0.876  0.708-   2 1.10
   6  0.046  0.367  0.667-  16 1.56
   7  0.498  0.006  0.394-  19 2.77  21 2.77  18 2.78  18 2.78  19 2.79  21 2.79  20 2.82   9 2.83
                            12 2.84
   8  0.167  0.670  0.471-   9 2.78  12 2.78  20 2.78  20 2.78  12 2.78   9 2.78  11 2.79   1 2.80
                            13 2.81  19 2.85  21 2.85  18 2.85
   9  0.668  0.670  0.469-   8 2.78  20 2.78  12 2.78  20 2.78  12 2.78   8 2.78  19 2.82   7 2.83
                            18 2.83  13 2.84   1 2.85  10 2.85
  10  0.840  0.328  0.545-  13 2.75   1 2.76  17 2.77  11 2.78  11 2.78  12 2.79   1 2.80  13 2.81
                            20 2.82  16 2.84   9 2.85  14 3.07
  11  0.339  0.330  0.544-   1 2.77  10 2.78  13 2.78  12 2.78  13 2.78  10 2.78   1 2.79  17 2.79
                             8 2.79  20 2.80  15 2.82  16 2.85
  12  0.168  0.169  0.470-   9 2.78   8 2.78  20 2.78  11 2.78  20 2.78   8 2.78   9 2.78  10 2.79
                            13 2.83   7 2.84  21 2.84  19 2.85
  13  0.335  0.833  0.546-   1 2.75  10 2.75  15 2.77  11 2.78  11 2.78  17 2.79   8 2.81  10 2.81
                             1 2.81  12 2.83   9 2.84  14 3.01
  14  0.008  0.986  0.629-   2 2.08  16 2.76  15 2.77  17 2.79  17 2.80  16 2.82  15 2.83   1 3.00
                            13 3.01  10 3.07
  15  0.511  0.989  0.619-   1 2.75  13 2.77  14 2.77  16 2.77  17 2.78  17 2.78  16 2.79  11 2.82
                            14 2.83
  16  0.009  0.490  0.621-   6 1.56  14 2.76  15 2.77  17 2.77  17 2.79  15 2.79  14 2.82  10 2.84
                             1 2.84  11 2.85
  17  0.510  0.490  0.619-  10 2.77  16 2.77  15 2.78  15 2.78  16 2.79  13 2.79  14 2.79  11 2.79
                            14 2.80
  18  0.497  0.506  0.394-  21 2.76  19 2.77   7 2.78   7 2.78  19 2.79  21 2.79  20 2.83   9 2.83
                             8 2.85
  19  0.001  0.504  0.394-  18 2.77   7 2.77  21 2.78  21 2.78   7 2.79  18 2.79   9 2.82   8 2.85
                            12 2.85
  20  0.668  0.170  0.469-   9 2.78  12 2.78   8 2.78   8 2.78  12 2.78   9 2.78  11 2.80  21 2.81
                             7 2.82  10 2.82  18 2.83   1 2.88
  21  0.001  0.004  0.394-  18 2.76   7 2.77  19 2.78  19 2.78   7 2.79  18 2.79  20 2.81  12 2.84
                             8 2.85
 
  LATTYP: Found a hexagonal cell.
 ALAT       =     5.5578593001
 C/A-ratio  =     5.5429542221
  
  Lattice vectors:
  
 A1 = (   2.7789296501,  -4.8132473446,   0.0000000000)
 A2 = (  -5.5578593001,   0.0000000000,   0.0000000000)
 A3 = (   0.0000000000,   0.0000000000, -30.8069596737)


Analysis of symmetry for initial positions (statically):
=====================================================================
 Subroutine PRICEL returns:
 Original cell was already a primitive cell.
 

 Routine SETGRP: Setting up the symmetry group for a 
 hexagonal supercell.


 Subroutine GETGRP returns: Found  1 space group operations
 (whereof  1 operations were pure point group operations)
 out of a pool of 24 trial point group operations.


The static configuration has the point symmetry C_1 .


Analysis of symmetry for dynamics (positions and initial velocities):
=====================================================================
 Subroutine PRICEL returns:
 Original cell was already a primitive cell.
 

 Routine SETGRP: Setting up the symmetry group for a 
 hexagonal supercell.


 Subroutine GETGRP returns: Found  1 space group operations
 (whereof  1 operations were pure point group operations)
 out of a pool of 24 trial point group operations.


The dynamic configuration has the point symmetry C_1 .


 Subroutine INISYM returns: Found  1 space group operations
 (whereof  1 operations are pure point group operations),
 and found     1 'primitive' translations

 
 
 KPOINTS: 0.5.Ir1.Au10                            

Automatic generation of k-mesh.
Space group operators:
 irot       det(A)        alpha          n_x          n_y          n_z        tau_x        tau_y        tau_z
    1     1.000000     0.000001     1.000000     0.000000     0.000000     0.000000     0.000000     0.000000
 
 Subroutine IBZKPT returns following result:
 ===========================================
 
 Found     96 irreducible k-points:
 
 Following reciprocal coordinates:
            Coordinates               Weight
  0.062500  0.062500  0.000000     16.000000
  0.000000  0.062500  0.000000     16.000000
 -0.062500  0.000000  0.000000     16.000000
  0.187500  0.062500  0.000000     16.000000
  0.125000  0.187500  0.000000     16.000000
 -0.062500  0.125000  0.000000     16.000000
  0.125000 -0.062500  0.000000     16.000000
 -0.062500 -0.187500  0.000000     16.000000
 -0.187500 -0.125000  0.000000     16.000000
  0.312500  0.062500  0.000000     16.000000
  0.250000  0.312500  0.000000     16.000000
 -0.062500  0.250000  0.000000     16.000000
  0.250000 -0.062500  0.000000     16.000000
 -0.062500 -0.312500  0.000000     16.000000
 -0.312500 -0.250000  0.000000     16.000000
  0.437500  0.062500  0.000000     16.000000
  0.375000  0.437500  0.000000     16.000000
 -0.062500  0.375000  0.000000     16.000000
  0.375000 -0.062500  0.000000     16.000000
 -0.062500 -0.437500  0.000000     16.000000
 -0.437500 -0.375000  0.000000     16.000000
 -0.437500  0.062500  0.000000     16.000000
  0.500000 -0.437500  0.000000     16.000000
 -0.062500  0.500000  0.000000     16.000000
  0.500000 -0.062500  0.000000     16.000000
 -0.062500  0.437500  0.000000     16.000000
  0.437500  0.500000  0.000000     16.000000
 -0.312500  0.062500  0.000000     16.000000
 -0.375000 -0.312500  0.000000     16.000000
 -0.062500 -0.375000  0.000000     16.000000
 -0.375000 -0.062500  0.000000     16.000000
 -0.062500  0.312500  0.000000     16.000000
  0.312500  0.375000  0.000000     16.000000
 -0.187500  0.062500  0.000000     16.000000
 -0.250000 -0.187500  0.000000     16.000000
 -0.062500 -0.250000  0.000000     16.000000
 -0.250000 -0.062500  0.000000     16.000000
 -0.062500  0.187500  0.000000     16.000000
  0.187500  0.250000  0.000000     16.000000
 -0.062500  0.062500  0.000000     16.000000
 -0.125000 -0.062500  0.000000     16.000000
 -0.062500 -0.125000  0.000000     16.000000
  0.187500  0.187500  0.000000     16.000000
  0.000000  0.187500  0.000000     16.000000
 -0.187500  0.000000  0.000000     16.000000
  0.312500  0.187500  0.000000     16.000000
  0.125000  0.312500  0.000000     16.000000
 -0.187500  0.125000  0.000000     16.000000
  0.125000 -0.187500  0.000000     16.000000
 -0.187500 -0.312500  0.000000     16.000000
 -0.312500 -0.125000  0.000000     16.000000
  0.437500  0.187500  0.000000     16.000000
  0.250000  0.437500  0.000000     16.000000
 -0.187500  0.250000  0.000000     16.000000
  0.250000 -0.187500  0.000000     16.000000
 -0.187500 -0.437500  0.000000     16.000000
 -0.437500 -0.250000  0.000000     16.000000
 -0.437500  0.187500  0.000000     16.000000
  0.375000 -0.437500  0.000000     16.000000
 -0.187500  0.375000  0.000000     16.000000
  0.375000 -0.187500  0.000000     16.000000
 -0.187500  0.437500  0.000000     16.000000
  0.437500 -0.375000  0.000000     16.000000
 -0.312500  0.187500  0.000000     16.000000
  0.500000 -0.312500  0.000000     16.000000
 -0.187500  0.500000  0.000000     16.000000
  0.500000 -0.187500  0.000000     16.000000
 -0.187500  0.312500  0.000000     16.000000
  0.312500  0.500000  0.000000     16.000000
 -0.187500  0.187500  0.000000     16.000000
 -0.375000 -0.187500  0.000000     16.000000
 -0.187500 -0.375000  0.000000     16.000000
  0.312500  0.312500  0.000000     16.000000
  0.000000  0.312500  0.000000     16.000000
 -0.312500  0.000000  0.000000     16.000000
  0.437500  0.312500  0.000000     16.000000
  0.125000  0.437500  0.000000     16.000000
 -0.312500  0.125000  0.000000     16.000000
  0.125000 -0.312500  0.000000     16.000000
 -0.312500 -0.437500  0.000000     16.000000
 -0.437500 -0.125000  0.000000     16.000000
 -0.437500  0.312500  0.000000     16.000000
  0.250000 -0.437500  0.000000     16.000000
 -0.312500  0.250000  0.000000     16.000000
  0.250000 -0.312500  0.000000     16.000000
 -0.312500  0.437500  0.000000     16.000000
  0.437500 -0.250000  0.000000     16.000000
 -0.312500  0.312500  0.000000     16.000000
  0.375000 -0.312500  0.000000     16.000000
 -0.312500  0.375000  0.000000     16.000000
  0.437500  0.437500  0.000000     16.000000
  0.000000  0.437500  0.000000     16.000000
 -0.437500 -0.000000  0.000000     16.000000
 -0.437500  0.437500  0.000000     16.000000
  0.125000 -0.437500  0.000000     16.000000
 -0.437500  0.125000  0.000000     16.000000
 
 Following cartesian coordinates:
            Coordinates               Weight
  0.011245  0.006492  0.000000     16.000000
  0.000000  0.012985  0.000000     16.000000
 -0.011245  0.006492  0.000000     16.000000
  0.033736 -0.006492  0.000000     16.000000
  0.022491  0.025970  0.000000     16.000000
 -0.011245  0.032462  0.000000     16.000000
  0.022491 -0.025970  0.000000     16.000000
 -0.011245 -0.032462  0.000000     16.000000
 -0.033736 -0.006492  0.000000     16.000000
  0.056227 -0.019477  0.000000     16.000000
  0.044981  0.038955  0.000000     16.000000
 -0.011245  0.058432  0.000000     16.000000
  0.044981 -0.038955  0.000000     16.000000
 -0.011245 -0.058432  0.000000     16.000000
 -0.056227 -0.019477  0.000000     16.000000
  0.078717 -0.032462  0.000000     16.000000
  0.067472  0.051940  0.000000     16.000000
 -0.011245  0.084402  0.000000     16.000000
  0.067472 -0.051940  0.000000     16.000000
 -0.011245 -0.084402  0.000000     16.000000
 -0.078717 -0.032462  0.000000     16.000000
 -0.078717  0.058432  0.000000     16.000000
  0.089963 -0.142835  0.000000     16.000000
 -0.011245  0.110372  0.000000     16.000000
  0.089963 -0.064925  0.000000     16.000000
 -0.011245  0.097387  0.000000     16.000000
  0.078717  0.058432  0.000000     16.000000
 -0.056227  0.045447  0.000000     16.000000
 -0.067472 -0.025970  0.000000     16.000000
 -0.011245 -0.071417  0.000000     16.000000
 -0.067472  0.025970  0.000000     16.000000
 -0.011245  0.071417  0.000000     16.000000
  0.056227  0.045447  0.000000     16.000000
 -0.033736  0.032462  0.000000     16.000000
 -0.044981 -0.012985  0.000000     16.000000
 -0.011245 -0.045447  0.000000     16.000000
 -0.044981  0.012985  0.000000     16.000000
 -0.011245  0.045447  0.000000     16.000000
  0.033736  0.032462  0.000000     16.000000
 -0.011245  0.019477  0.000000     16.000000
 -0.022491  0.000000  0.000000     16.000000
 -0.011245 -0.019477  0.000000     16.000000
  0.033736  0.019477  0.000000     16.000000
  0.000000  0.038955  0.000000     16.000000
 -0.033736  0.019477  0.000000     16.000000
  0.056227  0.006492  0.000000     16.000000
  0.022491  0.051940  0.000000     16.000000
 -0.033736  0.045447  0.000000     16.000000
  0.022491 -0.051940  0.000000     16.000000
 -0.033736 -0.045447  0.000000     16.000000
 -0.056227  0.006492  0.000000     16.000000
  0.078717 -0.006492  0.000000     16.000000
  0.044981  0.064925  0.000000     16.000000
 -0.033736  0.071417  0.000000     16.000000
  0.044981 -0.064925  0.000000     16.000000
 -0.033736 -0.071417  0.000000     16.000000
 -0.078717 -0.006492  0.000000     16.000000
 -0.078717  0.084402  0.000000     16.000000
  0.067472 -0.129850  0.000000     16.000000
 -0.033736  0.097387  0.000000     16.000000
  0.067472 -0.077910  0.000000     16.000000
 -0.033736  0.110372  0.000000     16.000000
  0.078717 -0.123357  0.000000     16.000000
 -0.056227  0.071417  0.000000     16.000000
  0.089963 -0.116865  0.000000     16.000000
 -0.033736  0.123357  0.000000     16.000000
  0.089963 -0.090895  0.000000     16.000000
 -0.033736  0.084402  0.000000     16.000000
  0.056227  0.071417  0.000000     16.000000
 -0.033736  0.058432  0.000000     16.000000
 -0.067472  0.000000  0.000000     16.000000
 -0.033736 -0.058432  0.000000     16.000000
  0.056227  0.032462  0.000000     16.000000
  0.000000  0.064925  0.000000     16.000000
 -0.056227  0.032462  0.000000     16.000000
  0.078717  0.019477  0.000000     16.000000
  0.022491  0.077910  0.000000     16.000000
 -0.056227  0.058432  0.000000     16.000000
  0.022491 -0.077910  0.000000     16.000000
 -0.056227 -0.058432  0.000000     16.000000
 -0.078717  0.019477  0.000000     16.000000
 -0.078717  0.110372  0.000000     16.000000
  0.044981 -0.116865  0.000000     16.000000
 -0.056227  0.084402  0.000000     16.000000
  0.044981 -0.090895  0.000000     16.000000
 -0.056227  0.123357  0.000000     16.000000
  0.078717 -0.097387  0.000000     16.000000
 -0.056227  0.097387  0.000000     16.000000
  0.067472 -0.103880  0.000000     16.000000
 -0.056227  0.110372  0.000000     16.000000
  0.078717  0.045447  0.000000     16.000000
  0.000000  0.090895  0.000000     16.000000
 -0.078717  0.045447  0.000000     16.000000
 -0.078717  0.136342  0.000000     16.000000
  0.022491 -0.103880  0.000000     16.000000
 -0.078717  0.071417  0.000000     16.000000
 


--------------------------------------------------------------------------------------------------------




 Dimension of arrays:
   k-points           NKPTS =     96   k-points in BZ     NKDIM =     96   number of bands    NBANDS=    100
   number of dos      NEDOS =    301   number of ions     NIONS =     21
   non local maximal  LDIM  =      6   non local SUM 2l+1 LMDIM =     18
   total plane-waves  NPLWV = 112896
   max r-space proj   IRMAX =   2252   max aug-charges    IRDMAX=  10104
   dimension x,y,z NGX =    28 NGY =   28 NGZ =  144
   dimension x,y,z NGXF=    56 NGYF=   56 NGZF=  288
   support grid    NGXF=    56 NGYF=   56 NGZF=  288
   ions per type =               1   1   4   1  14
   NGX,Y,Z   is equivalent  to a cutoff of   8.38,  8.38,  7.77 a.u.
   NGXF,Y,Z  is equivalent  to a cutoff of  16.75, 16.75, 15.54 a.u.

 SYSTEM =  0.5.Ir1.Au10                            
 POSCAR =  Au  C  H Ir Pt                          

 Startparameter for this run:
   NWRITE =      2    write-flag & timer
   PREC   = normal    normal or accurate (medium, high low for compatibility)
   ISTART =      0    job   : 0-new  1-cont  2-samecut
   ICHARG =      2    charge: 1-file 2-atom 10-const
   ISPIN  =      1    spin polarized calculation?
   LNONCOLLINEAR =      F non collinear calculations
   LSORBIT =      F    spin-orbit coupling
   INIWAV =      1    electr: 0-lowe 1-rand  2-diag
   LASPH  =      F    aspherical Exc in radial PAW
   METAGGA=      F    non-selfconsistent MetaGGA calc.

 Electronic Relaxation 1
   ENCUT  =  350.0 eV  25.72 Ry    5.07 a.u.   8.48  8.48 46.99*2*pi/ulx,y,z
   ENINI  =  350.0     initial cutoff
   ENAUG  =  644.9 eV  augmentation charge cutoff
   NELM   =   1000;   NELMIN=  5; NELMDL= -5     # of ELM steps 
   EDIFF  = 0.1E-04   stopping-criterion for ELM
   LREAL  =      T    real-space projection
   NLSPLINE    = F    spline interpolate recip. space projectors
   LCOMPAT=      F    compatible to vasp.4.4
   GGA_COMPAT  = T    GGA compatible to vasp.4.4-vasp.4.6
   LMAXPAW     = -100 max onsite density
   LMAXMIX     =    2 max onsite mixed and CHGCAR
   VOSKOWN=      0    Vosko Wilk Nusair interpolation
   ROPT   =   -0.00050  -0.00050  -0.00050  -0.00050
   ROPT   =   -0.00050
 Ionic relaxation
   EDIFFG = 0.1E-03   stopping-criterion for IOM
   NSW    =      0    number of steps for IOM
   NBLOCK =      1;   KBLOCK =      1    inner block; outer block 
   IBRION =     -1    ionic relax: 0-MD 1-quasi-New 2-CG
   NFREE  =      0    steps in history (QN), initial steepest desc. (CG)
   ISIF   =      2    stress and relaxation
   IWAVPR =     10    prediction:  0-non 1-charg 2-wave 3-comb
   ISYM   =      2    0-nonsym 1-usesym 2-fastsym
   LCORR  =      T    Harris-Foulkes like correction to forces

   POTIM  = 0.5000    time-step for ionic-motion
   TEIN   =    0.0    initial temperature
   TEBEG  =    0.0;   TEEND  =   0.0 temperature during run
   SMASS  =  -3.00    Nose mass-parameter (am)
   estimated Nose-frequenzy (Omega)   =  0.10E-29 period in steps =****** mass=  -0.706E-27a.u.
   SCALEE = 1.0000    scale energy and forces
   NPACO  =    256;   APACO  = 16.0  distance and # of slots for P.C.
   PSTRESS=    0.0 pullay stress

  Mass of Ions in am
   POMASS = 196.97 12.01  1.00192.22195.08
  Ionic Valenz
   ZVAL   =  11.00  4.00  1.00  9.00 10.00
  Atomic Wigner-Seitz radii
   RWIGS  =  -1.00 -1.00 -1.00 -1.00 -1.00
  virtual crystal weights 
   VCA    =   1.00  1.00  1.00  1.00  1.00
   NELECT =     168.0000    total number of electrons
   NUPDOWN=      -1.0000    fix difference up-down

 DOS related values:
   EMIN   =  10.00;   EMAX   =-10.00  energy-range for DOS
   EFERMI =   0.00
   ISMEAR =     1;   SIGMA  =   0.20  broadening in eV -4-tet -1-fermi 0-gaus

 Electronic relaxation 2 (details)
   IALGO  =     38    algorithm
   LDIAG  =      T    sub-space diagonalisation (order eigenvalues)
   LSUBROT=      F    optimize rotation matrix (better conditioning)
   TURBO    =      0    0=normal 1=particle mesh
   IRESTART =      0    0=no restart 2=restart with 2 vectors
   NREBOOT  =      0    no. of reboots
   NMIN     =      0    reboot dimension
   EREF     =   0.00    reference energy to select bands
   IMIX   =      4    mixing-type and parameters
     AMIX     =   0.40;   BMIX     =  1.00
     AMIX_MAG =   1.60;   BMIX_MAG =  1.00
     AMIN     =   0.10
     WC   =   100.;   INIMIX=   1;  MIXPRE=   1;  MAXMIX= -45

 Intra band minimization:
   WEIMIN = 0.0000     energy-eigenvalue tresh-hold
   EBREAK =  0.25E-07  absolut break condition
   DEPER  =   0.30     relativ break condition  

   TIME   =   0.40     timestep for ELM

  volume/ion in A,a.u.               =      39.24       264.83
  Fermi-wavevector in a.u.,A,eV,Ry     =   0.963488  1.820729 12.630418  0.928310
  Thomas-Fermi vector in A             =   2.093038
 
 Write flags
   LWAVE        =      F    write WAVECAR
   LDOWNSAMPLE  =      F    k-point downsampling of WAVECAR
   LCHARG       =      F    write CHGCAR
   LVTOT        =      F    write LOCPOT, total local potential
   LVHAR        =      F    write LOCPOT, Hartree potential only
   LELF         =      F    write electronic localiz. function (ELF)
   LORBIT       =      0    0 simple, 1 ext, 2 COOP (PROOUT), +10 PAW based schemes


 Dipole corrections
   LMONO  =      F    monopole corrections only (constant potential shift)
   LDIPOL =      F    correct potential (dipole corrections)
   IDIPOL =      3    1-x, 2-y, 3-z, 4-all directions 
   EPSILON=  1.0000000 bulk dielectric constant

 Exchange correlation treatment:
   GGA     =    --    GGA type
   LEXCH   =     8    internal setting for exchange type
   VOSKOWN=      0    Vosko Wilk Nusair interpolation
   LHFCALC =     F    Hartree Fock is set to
   LHFONE  =     F    Hartree Fock one center treatment
   AEXX    =    0.0000 exact exchange contribution

 Linear response parameters
   LEPSILON=     F    determine dielectric tensor
   LRPA    =     F    only Hartree local field effects (RPA)
   LNABLA  =     F    use nabla operator in PAW spheres
   LVEL    =     F    velocity operator in full k-point grid
   LINTERFAST=   F  fast interpolation
   KINTER  =     0    interpolate to denser k-point grid
   CSHIFT  =0.1000    complex shift for real part using Kramers Kronig
   OMEGAMAX=  -1.0    maximum frequency
   DEG_THRESHOLD= 0.2000000E-02 threshold for treating states as degnerate
   RTIME   =   -0.100 relaxation time in fs
  (WPLASMAI=    0.000 imaginary part of plasma frequency in eV, 0.658/RTIME)
   DFIELD  = 0.0000000 0.0000000 0.0000000 field for delta impulse in time
 
 Orbital magnetization related:
   ORBITALMAG=     F  switch on orbital magnetization
   LCHIMAG   =     F  perturbation theory with respect to B field
   DQ        =  0.001000  dq finite difference perturbation B field
   LLRAUG    =     F  two centre corrections for induced B field



--------------------------------------------------------------------------------------------------------


 Static calculation
 charge density and potential will be updated during run
 non-spin polarized calculation
 Variant of blocked Davidson
 Davidson routine will perform the subspace rotation
 perform sub-space diagonalisation
    after iterative eigenvector-optimisation
 modified Broyden-mixing scheme, WC =      100.0
 initial mixing is a Kerker type mixing with AMIX =  0.4000 and BMIX =      1.0000
 Hartree-type preconditioning will be used
 using additional bands           16
 real space projection scheme for non local part
 use partial core corrections
 calculate Harris-corrections to forces 
   (improved forces if not selfconsistent)
 use gradient corrections 
 use of overlap-Matrix (Vanderbilt PP)
 Methfessel and Paxton  Order N= 1 SIGMA  =   0.20


--------------------------------------------------------------------------------------------------------


  energy-cutoff  :      350.00
  volume of cell :      824.13
      direct lattice vectors                 reciprocal lattice vectors
     5.557859300  0.000000000  0.000000000     0.179925390 -0.103879972  0.000000000
     2.778929650  4.813247345  0.000000000     0.000000000  0.207759944  0.000000000
     0.000000000  0.000000000 30.806959674     0.000000000  0.000000000  0.032460198

  length of vectors
     5.557859300  5.557859300 30.806959674     0.207759944  0.207759944  0.032460198


 
 k-points in units of 2pi/SCALE and weight: 0.5.Ir1.Au10                            
   0.01124534  0.00649250  0.00000000       0.010
   0.00000000  0.01298500  0.00000000       0.010
  -0.01124534  0.00649250  0.00000000       0.010
   0.03373601 -0.00649250  0.00000000       0.010
   0.02249067  0.02596999  0.00000000       0.010
  -0.01124534  0.03246249  0.00000000       0.010
   0.02249067 -0.02596999  0.00000000       0.010
  -0.01124534 -0.03246249  0.00000000       0.010
  -0.03373601 -0.00649250  0.00000000       0.010
   0.05622668 -0.01947749  0.00000000       0.010
   0.04498135  0.03895499  0.00000000       0.010
  -0.01124534  0.05843248  0.00000000       0.010
   0.04498135 -0.03895499  0.00000000       0.010
  -0.01124534 -0.05843248  0.00000000       0.010
  -0.05622668 -0.01947749  0.00000000       0.010
   0.07871736 -0.03246249  0.00000000       0.010
   0.06747202  0.05193999  0.00000000       0.010
  -0.01124534  0.08440248  0.00000000       0.010
   0.06747202 -0.05193999  0.00000000       0.010
  -0.01124534 -0.08440248  0.00000000       0.010
  -0.07871736 -0.03246249  0.00000000       0.010
  -0.07871736  0.05843248  0.00000000       0.010
   0.08996269 -0.14283496  0.00000000       0.010
  -0.01124534  0.11037247  0.00000000       0.010
   0.08996269 -0.06492498  0.00000000       0.010
  -0.01124534  0.09738747  0.00000000       0.010
   0.07871736  0.05843248  0.00000000       0.010
  -0.05622668  0.04544749  0.00000000       0.010
  -0.06747202 -0.02596999  0.00000000       0.010
  -0.01124534 -0.07141748  0.00000000       0.010
  -0.06747202  0.02596999  0.00000000       0.010
  -0.01124534  0.07141748  0.00000000       0.010
   0.05622668  0.04544749  0.00000000       0.010
  -0.03373601  0.03246249  0.00000000       0.010
  -0.04498135 -0.01298500  0.00000000       0.010
  -0.01124534 -0.04544749  0.00000000       0.010
  -0.04498135  0.01298500  0.00000000       0.010
  -0.01124534  0.04544749  0.00000000       0.010
   0.03373601  0.03246249  0.00000000       0.010
  -0.01124534  0.01947749  0.00000000       0.010
  -0.02249067  0.00000000  0.00000000       0.010
  -0.01124534 -0.01947749  0.00000000       0.010
   0.03373601  0.01947749  0.00000000       0.010
   0.00000000  0.03895499  0.00000000       0.010
  -0.03373601  0.01947749  0.00000000       0.010
   0.05622668  0.00649250  0.00000000       0.010
   0.02249067  0.05193999  0.00000000       0.010
  -0.03373601  0.04544749  0.00000000       0.010
   0.02249067 -0.05193999  0.00000000       0.010
  -0.03373601 -0.04544749  0.00000000       0.010
  -0.05622668  0.00649250  0.00000000       0.010
   0.07871736 -0.00649250  0.00000000       0.010
   0.04498135  0.06492498  0.00000000       0.010
  -0.03373601  0.07141748  0.00000000       0.010
   0.04498135 -0.06492498  0.00000000       0.010
  -0.03373601 -0.07141748  0.00000000       0.010
  -0.07871736 -0.00649250  0.00000000       0.010
  -0.07871736  0.08440248  0.00000000       0.010
   0.06747202 -0.12984997  0.00000000       0.010
  -0.03373601  0.09738747  0.00000000       0.010
   0.06747202 -0.07790998  0.00000000       0.010
  -0.03373601  0.11037247  0.00000000       0.010
   0.07871736 -0.12335747  0.00000000       0.010
  -0.05622668  0.07141748  0.00000000       0.010
   0.08996269 -0.11686497  0.00000000       0.010
  -0.03373601  0.12335747  0.00000000       0.010
   0.08996269 -0.09089498  0.00000000       0.010
  -0.03373601  0.08440248  0.00000000       0.010
   0.05622668  0.07141748  0.00000000       0.010
  -0.03373601  0.05843248  0.00000000       0.010
  -0.06747202  0.00000000  0.00000000       0.010
  -0.03373601 -0.05843248  0.00000000       0.010
   0.05622668  0.03246249  0.00000000       0.010
   0.00000000  0.06492498  0.00000000       0.010
  -0.05622668  0.03246249  0.00000000       0.010
   0.07871736  0.01947749  0.00000000       0.010
   0.02249067  0.07790998  0.00000000       0.010
  -0.05622668  0.05843248  0.00000000       0.010
   0.02249067 -0.07790998  0.00000000       0.010
  -0.05622668 -0.05843248  0.00000000       0.010
  -0.07871736  0.01947749  0.00000000       0.010
  -0.07871736  0.11037247  0.00000000       0.010
   0.04498135 -0.11686497  0.00000000       0.010
  -0.05622668  0.08440248  0.00000000       0.010
   0.04498135 -0.09089498  0.00000000       0.010
  -0.05622668  0.12335747  0.00000000       0.010
   0.07871736 -0.09738747  0.00000000       0.010
  -0.05622668  0.09738747  0.00000000       0.010
   0.06747202 -0.10387997  0.00000000       0.010
  -0.05622668  0.11037247  0.00000000       0.010
   0.07871736  0.04544749  0.00000000       0.010
   0.00000000  0.09089498  0.00000000       0.010
  -0.07871736  0.04544749  0.00000000       0.010
  -0.07871736  0.13634246  0.00000000       0.010
   0.02249067 -0.10387997  0.00000000       0.010
  -0.07871736  0.07141748  0.00000000       0.010
 
 k-points in reciprocal lattice and weights: 0.5.Ir1.Au10                            
   0.06250000  0.06250000  0.00000000       0.010
   0.00000000  0.06250000  0.00000000       0.010
  -0.06250000  0.00000000  0.00000000       0.010
   0.18750000  0.06250000  0.00000000       0.010
   0.12500000  0.18750000  0.00000000       0.010
  -0.06250000  0.12500000  0.00000000       0.010
   0.12500000 -0.06250000  0.00000000       0.010
  -0.06250000 -0.18750000  0.00000000       0.010
  -0.18750000 -0.12500000  0.00000000       0.010
   0.31250000  0.06250000  0.00000000       0.010
   0.25000000  0.31250000  0.00000000       0.010
  -0.06250000  0.25000000  0.00000000       0.010
   0.25000000 -0.06250000  0.00000000       0.010
  -0.06250000 -0.31250000  0.00000000       0.010
  -0.31250000 -0.25000000  0.00000000       0.010
   0.43750000  0.06250000  0.00000000       0.010
   0.37500000  0.43750000  0.00000000       0.010
  -0.06250000  0.37500000  0.00000000       0.010
   0.37500000 -0.06250000  0.00000000       0.010
  -0.06250000 -0.43750000  0.00000000       0.010
  -0.43750000 -0.37500000  0.00000000       0.010
  -0.43750000  0.06250000  0.00000000       0.010
   0.50000000 -0.43750000  0.00000000       0.010
  -0.06250000  0.50000000  0.00000000       0.010
   0.50000000 -0.06250000  0.00000000       0.010
  -0.06250000  0.43750000  0.00000000       0.010
   0.43750000  0.50000000  0.00000000       0.010
  -0.31250000  0.06250000  0.00000000       0.010
  -0.37500000 -0.31250000  0.00000000       0.010
  -0.06250000 -0.37500000  0.00000000       0.010
  -0.37500000 -0.06250000  0.00000000       0.010
  -0.06250000  0.31250000  0.00000000       0.010
   0.31250000  0.37500000  0.00000000       0.010
  -0.18750000  0.06250000  0.00000000       0.010
  -0.25000000 -0.18750000  0.00000000       0.010
  -0.06250000 -0.25000000  0.00000000       0.010
  -0.25000000 -0.06250000  0.00000000       0.010
  -0.06250000  0.18750000  0.00000000       0.010
   0.18750000  0.25000000  0.00000000       0.010
  -0.06250000  0.06250000  0.00000000       0.010
  -0.12500000 -0.06250000  0.00000000       0.010
  -0.06250000 -0.12500000  0.00000000       0.010
   0.18750000  0.18750000  0.00000000       0.010
   0.00000000  0.18750000  0.00000000       0.010
  -0.18750000  0.00000000  0.00000000       0.010
   0.31250000  0.18750000  0.00000000       0.010
   0.12500000  0.31250000  0.00000000       0.010
  -0.18750000  0.12500000  0.00000000       0.010
   0.12500000 -0.18750000  0.00000000       0.010
  -0.18750000 -0.31250000  0.00000000       0.010
  -0.31250000 -0.12500000  0.00000000       0.010
   0.43750000  0.18750000  0.00000000       0.010
   0.25000000  0.43750000  0.00000000       0.010
  -0.18750000  0.25000000  0.00000000       0.010
   0.25000000 -0.18750000  0.00000000       0.010
  -0.18750000 -0.43750000  0.00000000       0.010
  -0.43750000 -0.25000000  0.00000000       0.010
  -0.43750000  0.18750000  0.00000000       0.010
   0.37500000 -0.43750000  0.00000000       0.010
  -0.18750000  0.37500000  0.00000000       0.010
   0.37500000 -0.18750000  0.00000000       0.010
  -0.18750000  0.43750000  0.00000000       0.010
   0.43750000 -0.37500000  0.00000000       0.010
  -0.31250000  0.18750000  0.00000000       0.010
   0.50000000 -0.31250000  0.00000000       0.010
  -0.18750000  0.50000000  0.00000000       0.010
   0.50000000 -0.18750000  0.00000000       0.010
  -0.18750000  0.31250000  0.00000000       0.010
   0.31250000  0.50000000  0.00000000       0.010
  -0.18750000  0.18750000  0.00000000       0.010
  -0.37500000 -0.18750000  0.00000000       0.010
  -0.18750000 -0.37500000  0.00000000       0.010
   0.31250000  0.31250000  0.00000000       0.010
   0.00000000  0.31250000  0.00000000       0.010
  -0.31250000  0.00000000  0.00000000       0.010
   0.43750000  0.31250000  0.00000000       0.010
   0.12500000  0.43750000  0.00000000       0.010
  -0.31250000  0.12500000  0.00000000       0.010
   0.12500000 -0.31250000  0.00000000       0.010
  -0.31250000 -0.43750000  0.00000000       0.010
  -0.43750000 -0.12500000  0.00000000       0.010
  -0.43750000  0.31250000  0.00000000       0.010
   0.25000000 -0.43750000  0.00000000       0.010
  -0.31250000  0.25000000  0.00000000       0.010
   0.25000000 -0.31250000  0.00000000       0.010
  -0.31250000  0.43750000  0.00000000       0.010
   0.43750000 -0.25000000  0.00000000       0.010
  -0.31250000  0.31250000  0.00000000       0.010
   0.37500000 -0.31250000  0.00000000       0.010
  -0.31250000  0.37500000  0.00000000       0.010
   0.43750000  0.43750000  0.00000000       0.010
   0.00000000  0.43750000  0.00000000       0.010
  -0.43750000 -0.00000000  0.00000000       0.010
  -0.43750000  0.43750000  0.00000000       0.010
   0.12500000 -0.43750000  0.00000000       0.010
  -0.43750000  0.12500000  0.00000000       0.010
 
 position of ions in fractional coordinates (direct lattice) 
   0.84135048  0.82984841  0.54562427
   0.99735554  0.97552004  0.69636905
   0.87661570  0.18876977  0.70901786
   0.89899240  0.85471904  0.70609578
   0.21285897  0.87604033  0.70822567
   0.04645190  0.36709801  0.66742722
   0.49819347  0.00559592  0.39396566
   0.16717432  0.66995668  0.47050539
   0.66797868  0.66982232  0.46929652
   0.83996289  0.32756575  0.54477008
   0.33926648  0.33008759  0.54403254
   0.16827435  0.16885874  0.47025601
   0.33477317  0.83256283  0.54553192
   0.00784648  0.98584322  0.62889807
   0.51147655  0.98910137  0.61863738
   0.00931511  0.48984939  0.62083592
   0.51006533  0.49032437  0.61850259
   0.49730032  0.50629180  0.39363379
   0.00061069  0.50440422  0.39403013
   0.66793732  0.17047771  0.46896247
   0.00067006  0.00425022  0.39415604
 
 position of ions in cartesian coordinates  (Angst):
   6.98219794  3.99426564 16.80902481
   8.25406331  4.69541922 21.45301313
   5.39668464  0.90859558 21.84268456
   7.37167735  4.11397415 21.75266415
   3.61749467  4.21659880 21.81827963
   1.27831271  1.76693354 20.56140346
   2.78443987  0.02693453 12.13688431
   2.79089384  3.22466721 14.49484065
   5.57392065  3.22402052 14.45759890
   5.57867775  1.57665498 16.78270981
   2.80288557  1.58879322 16.75998865
   1.40449171  0.81275890 14.48715797
   4.17425569  4.00733083 16.80617999
   2.78319859  4.74510728 19.37443755
   5.59135783  4.76078956 19.05833696
   1.41302908  2.35776628 19.12606708
   4.19744824  2.36005245 19.05418428
   4.17087453  2.43690767 12.12666017
   1.40509798  2.42782227 12.13887023
   4.18604723  0.82055139 14.44730779
   0.01553516  0.02045734 12.14274909
 


--------------------------------------------------------------------------------------------------------


 k-point  1 :   0.0625 0.0625 0.0000  plane waves:   12325
 k-point  2 :   0.0000 0.0625 0.0000  plane waves:   12325
 k-point  3 :  -0.0625 0.0000 0.0000  plane waves:   12325
 k-point  4 :   0.1875 0.0625 0.0000  plane waves:   12294
 k-point  5 :   0.1250 0.1875 0.0000  plane waves:   12294
 k-point  6 :  -0.0625 0.1250 0.0000  plane waves:   12294
 k-point  7 :   0.1250-0.0625 0.0000  plane waves:   12294
 k-point  8 :  -0.0625-0.1875 0.0000  plane waves:   12294
 k-point  9 :  -0.1875-0.1250 0.0000  plane waves:   12294
 k-point 10 :   0.3125 0.0625 0.0000  plane waves:   12263
 k-point 11 :   0.2500 0.3125 0.0000  plane waves:   12263
 k-point 12 :  -0.0625 0.2500 0.0000  plane waves:   12263
 k-point 13 :   0.2500-0.0625 0.0000  plane waves:   12263
 k-point 14 :  -0.0625-0.3125 0.0000  plane waves:   12263
 k-point 15 :  -0.3125-0.2500 0.0000  plane waves:   12263
 k-point 16 :   0.4375 0.0625 0.0000  plane waves:   12221
 k-point 17 :   0.3750 0.4375 0.0000  plane waves:   12221
 k-point 18 :  -0.0625 0.3750 0.0000  plane waves:   12221
 k-point 19 :   0.3750-0.0625 0.0000  plane waves:   12221
 k-point 20 :  -0.0625-0.4375 0.0000  plane waves:   12221
 k-point 21 :  -0.4375-0.3750 0.0000  plane waves:   12221
 k-point 22 :  -0.4375 0.0625 0.0000  plane waves:   12211
 k-point 23 :   0.5000-0.4375 0.0000  plane waves:   12211
 k-point 24 :  -0.0625 0.5000 0.0000  plane waves:   12211
 k-point 25 :   0.5000-0.0625 0.0000  plane waves:   12211
 k-point 26 :  -0.0625 0.4375 0.0000  plane waves:   12211
 k-point 27 :   0.4375 0.5000 0.0000  plane waves:   12211
 k-point 28 :  -0.3125 0.0625 0.0000  plane waves:   12242
 k-point 29 :  -0.3750-0.3125 0.0000  plane waves:   12242
 k-point 30 :  -0.0625-0.3750 0.0000  plane waves:   12242
 k-point 31 :  -0.3750-0.0625 0.0000  plane waves:   12242
 k-point 32 :  -0.0625 0.3125 0.0000  plane waves:   12242
 k-point 33 :   0.3125 0.3750 0.0000  plane waves:   12242
 k-point 34 :  -0.1875 0.0625 0.0000  plane waves:   12280
 k-point 35 :  -0.2500-0.1875 0.0000  plane waves:   12280
 k-point 36 :  -0.0625-0.2500 0.0000  plane waves:   12280
 k-point 37 :  -0.2500-0.0625 0.0000  plane waves:   12280
 k-point 38 :  -0.0625 0.1875 0.0000  plane waves:   12280
 k-point 39 :   0.1875 0.2500 0.0000  plane waves:   12280
 k-point 40 :  -0.0625 0.0625 0.0000  plane waves:   12329
 k-point 41 :  -0.1250-0.0625 0.0000  plane waves:   12329
 k-point 42 :  -0.0625-0.1250 0.0000  plane waves:   12329
 k-point 43 :   0.1875 0.1875 0.0000  plane waves:   12277
 k-point 44 :   0.0000 0.1875 0.0000  plane waves:   12277
 k-point 45 :  -0.1875 0.0000 0.0000  plane waves:   12277
 k-point 46 :   0.3125 0.1875 0.0000  plane waves:   12288
 k-point 47 :   0.1250 0.3125 0.0000  plane waves:   12288
 k-point 48 :  -0.1875 0.1250 0.0000  plane waves:   12288
 k-point 49 :   0.1250-0.1875 0.0000  plane waves:   12288
 k-point 50 :  -0.1875-0.3125 0.0000  plane waves:   12288
 k-point 51 :  -0.3125-0.1250 0.0000  plane waves:   12288
 k-point 52 :   0.4375 0.1875 0.0000  plane waves:   12234
 k-point 53 :   0.2500 0.4375 0.0000  plane waves:   12234
 k-point 54 :  -0.1875 0.2500 0.0000  plane waves:   12234
 k-point 55 :   0.2500-0.1875 0.0000  plane waves:   12234
 k-point 56 :  -0.1875-0.4375 0.0000  plane waves:   12234
 k-point 57 :  -0.4375-0.2500 0.0000  plane waves:   12234
 k-point 58 :  -0.4375 0.1875 0.0000  plane waves:   12216
 k-point 59 :   0.3750-0.4375 0.0000  plane waves:   12216
 k-point 60 :  -0.1875 0.3750 0.0000  plane waves:   12216
 k-point 61 :   0.3750-0.1875 0.0000  plane waves:   12216
 k-point 62 :  -0.1875 0.4375 0.0000  plane waves:   12216
 k-point 63 :   0.4375-0.3750 0.0000  plane waves:   12216
 k-point 64 :  -0.3125 0.1875 0.0000  plane waves:   12215
 k-point 65 :   0.5000-0.3125 0.0000  plane waves:   12215
 k-point 66 :  -0.1875 0.5000 0.0000  plane waves:   12215
 k-point 67 :   0.5000-0.1875 0.0000  plane waves:   12215
 k-point 68 :  -0.1875 0.3125 0.0000  plane waves:   12215
 k-point 69 :   0.3125 0.5000 0.0000  plane waves:   12215
 k-point 70 :  -0.1875 0.1875 0.0000  plane waves:   12289
 k-point 71 :  -0.3750-0.1875 0.0000  plane waves:   12289
 k-point 72 :  -0.1875-0.3750 0.0000  plane waves:   12289
 k-point 73 :   0.3125 0.3125 0.0000  plane waves:   12275
 k-point 74 :   0.0000 0.3125 0.0000  plane waves:   12275
 k-point 75 :  -0.3125 0.0000 0.0000  plane waves:   12275
 k-point 76 :   0.4375 0.3125 0.0000  plane waves:   12239
 k-point 77 :   0.1250 0.4375 0.0000  plane waves:   12239
 k-point 78 :  -0.3125 0.1250 0.0000  plane waves:   12239
 k-point 79 :   0.1250-0.3125 0.0000  plane waves:   12239
 k-point 80 :  -0.3125-0.4375 0.0000  plane waves:   12239
 k-point 81 :  -0.4375-0.1250 0.0000  plane waves:   12239
 k-point 82 :  -0.4375 0.3125 0.0000  plane waves:   12235
 k-point 83 :   0.2500-0.4375 0.0000  plane waves:   12235
 k-point 84 :  -0.3125 0.2500 0.0000  plane waves:   12235
 k-point 85 :   0.2500-0.3125 0.0000  plane waves:   12235
 k-point 86 :  -0.3125 0.4375 0.0000  plane waves:   12235
 k-point 87 :   0.4375-0.2500 0.0000  plane waves:   12235
 k-point 88 :  -0.3125 0.3125 0.0000  plane waves:   12232
 k-point 89 :   0.3750-0.3125 0.0000  plane waves:   12232
 k-point 90 :  -0.3125 0.3750 0.0000  plane waves:   12232
 k-point 91 :   0.4375 0.4375 0.0000  plane waves:   12200
 k-point 92 :   0.0000 0.4375 0.0000  plane waves:   12200
 k-point 93 :  -0.4375-0.0000 0.0000  plane waves:   12200
 k-point 94 :  -0.4375 0.4375 0.0000  plane waves:   12214
 k-point 95 :   0.1250-0.4375 0.0000  plane waves:   12214
 k-point 96 :  -0.4375 0.1250 0.0000  plane waves:   12214

 maximum and minimum number of plane-waves per node :      3101     2992

 maximum number of plane-waves:     12329
 maximum index in each direction: 
   IXMAX=    8   IYMAX=    8   IZMAX=   46
   IXMIN=   -8   IYMIN=   -8   IZMIN=  -46


 real space projection operators:
  total allocation   :       5104.12 KBytes
  max/ min on nodes  :       1277.35       1274.74


 parallel 3D FFT for wavefunctions:
    minimum data exchange during FFTs selected (reduces bandwidth)
 parallel 3D FFT for charge:
    minimum data exchange during FFTs selected (reduces bandwidth)


 total amount of memory used by VASP MPI-rank0   164323. kBytes
=======================================================================

   base      :      30000. kBytes
   nonlr-proj:       2370. kBytes
   fftplans  :       2967. kBytes
   grid      :       6321. kBytes
   one-center:         93. kBytes
   wavefun   :     122572. kBytes
 
     INWAV:  cpu time    0.0000: real time    0.0000
 Broyden mixing: mesh for mixing (old mesh)
   NGX = 17   NGY = 17   NGZ = 93
  (NGX  = 56   NGY  = 56   NGZ  =288)
  gives a total of  26877 points

 initial charge density was supplied:
 charge density of overlapping atoms calculated
 number of electron     168.0000000 magnetization 
 keeping initial charge density in first step


--------------------------------------------------------------------------------------------------------


 Maximum index for non-local projection operator          542
 Maximum index for augmentation-charges          716 (set IRDMAX)


--------------------------------------------------------------------------------------------------------


 First call to EWALD:  gamma=   0.189
 Maximum number of real-space cells 5x 5x 1
 Maximum number of reciprocal cells 2x 2x 8

    FEWALD:  cpu time    0.0014: real time    0.0014


--------------------------------------- Iteration      1(   1)  ---------------------------------------


    POTLOK:  cpu time    0.0256: real time    0.0317
    SETDIJ:  cpu time    0.0034: real time    0.0034
     EDDAV:  cpu time   13.4343: real time   13.4351
       DOS:  cpu time    0.0077: real time    0.0077
    --------------------------------------------
      LOOP:  cpu time   13.4711: real time   13.4780

 eigenvalue-minimisations  : 19288
 total energy-change (2. order) : 0.1028684E+04  (-0.5831388E+04)
 number of electron     168.0000000 magnetization 
 augmentation part      168.0000000 magnetization 

 Free energy of the ion-electron system (eV)
  ---------------------------------------------------
  alpha Z        PSCENC =       324.87461712
  Ewald energy   TEWEN  =    101180.29937552
  -Hartree energ DENC   =   -113468.91169395
  -exchange      EXHF   =         0.00000000
  -V(xc)+E(xc)   XCENC  =        69.10032257
  PAW double counting   =     11288.27476651   -10829.50941267
  entropy T*S    EENTRO =        -0.00086322
  eigenvalues    EBANDS =       573.91949315
  atomic energy  EATOM  =     11890.63736546
  Solvation  Ediel_sol  =         0.00000000
  ---------------------------------------------------
  free energy    TOTEN  =      1028.68397048 eV

  energy without entropy =     1028.68483370  energy(sigma->0) =     1028.68425822


--------------------------------------------------------------------------------------------------------




--------------------------------------- Iteration      1(   2)  ---------------------------------------


     EDDAV:  cpu time   15.9810: real time   15.9825
       DOS:  cpu time    0.0084: real time    0.0084
    --------------------------------------------
      LOOP:  cpu time   15.9894: real time   15.9909

 eigenvalue-minimisations  : 24128
 total energy-change (2. order) :-0.1058780E+04  (-0.9854309E+03)
 number of electron     168.0000000 magnetization 
 augmentation part      168.0000000 magnetization 

 Free energy of the ion-electron system (eV)
  ---------------------------------------------------
  alpha Z        PSCENC =       324.87461712
  Ewald energy   TEWEN  =    101180.29937552
  -Hartree energ DENC   =   -113468.91169395
  -exchange      EXHF   =         0.00000000
  -V(xc)+E(xc)   XCENC  =        69.10032257
  PAW double counting   =     11288.27476651   -10829.50941267
  entropy T*S    EENTRO =         0.00471958
  eigenvalues    EBANDS =      -484.86602521
  atomic energy  EATOM  =     11890.63736546
  Solvation  Ediel_sol  =         0.00000000
  ---------------------------------------------------
  free energy    TOTEN  =       -30.09596508 eV

  energy without entropy =      -30.10068466  energy(sigma->0) =      -30.09753827


--------------------------------------------------------------------------------------------------------




--------------------------------------- Iteration      1(   3)  ---------------------------------------


     EDDAV:  cpu time   15.3610: real time   15.3623
       DOS:  cpu time    0.0088: real time    0.0088
    --------------------------------------------
      LOOP:  cpu time   15.3699: real time   15.3711

 eigenvalue-minimisations  : 22960
 total energy-change (2. order) :-0.9103909E+02  (-0.8423908E+02)
 number of electron     168.0000000 magnetization 
 augmentation part      168.0000000 magnetization 

 Free energy of the ion-electron system (eV)
  ---------------------------------------------------
  alpha Z        PSCENC =       324.87461712
  Ewald energy   TEWEN  =    101180.29937552
  -Hartree energ DENC   =   -113468.91169395
  -exchange      EXHF   =         0.00000000
  -V(xc)+E(xc)   XCENC  =        69.10032257
  PAW double counting   =     11288.27476651   -10829.50941267
  entropy T*S    EENTRO =        -0.01676302
  eigenvalues    EBANDS =      -575.88363081
  atomic energy  EATOM  =     11890.63736546
  Solvation  Ediel_sol  =         0.00000000
  ---------------------------------------------------
  free energy    TOTEN  =      -121.13505328 eV

  energy without entropy =     -121.11829026  energy(sigma->0) =     -121.12946561


--------------------------------------------------------------------------------------------------------




--------------------------------------- Iteration      1(   4)  ---------------------------------------


     EDDAV:  cpu time   16.6611: real time   16.6620
       DOS:  cpu time    0.0087: real time    0.0087
    --------------------------------------------
      LOOP:  cpu time   16.6698: real time   16.6707

 eigenvalue-minimisations  : 25528
 total energy-change (2. order) :-0.4396565E+01  (-0.4193256E+01)
 number of electron     168.0000000 magnetization 
 augmentation part      168.0000000 magnetization 

 Free energy of the ion-electron system (eV)
  ---------------------------------------------------
  alpha Z        PSCENC =       324.87461712
  Ewald energy   TEWEN  =    101180.29937552
  -Hartree energ DENC   =   -113468.91169395
  -exchange      EXHF   =         0.00000000
  -V(xc)+E(xc)   XCENC  =        69.10032257
  PAW double counting   =     11288.27476651   -10829.50941267
  entropy T*S    EENTRO =        -0.02060589
  eigenvalues    EBANDS =      -580.27635275
  atomic energy  EATOM  =     11890.63736546
  Solvation  Ediel_sol  =         0.00000000
  ---------------------------------------------------
  free energy    TOTEN  =      -125.53161809 eV

  energy without entropy =     -125.51101220  energy(sigma->0) =     -125.52474946


--------------------------------------------------------------------------------------------------------




--------------------------------------- Iteration      1(   5)  ---------------------------------------


     EDDAV:  cpu time   17.1853: real time   17.1910
       DOS:  cpu time    0.0086: real time    0.0086
    CHARGE:  cpu time    0.7116: real time    0.7117
    MIXING:  cpu time    0.0010: real time    0.0011
    --------------------------------------------
      LOOP:  cpu time   17.9066: real time   17.9124

 eigenvalue-minimisations  : 26456
 total energy-change (2. order) :-0.1374475E+00  (-0.1362715E+00)
 number of electron     167.9999990 magnetization 
 augmentation part       46.8295789 magnetization 

 Broyden mixing:
  rms(total) = 0.43104E+01    rms(broyden)= 0.43101E+01
  rms(prec ) = 0.43601E+01
  weight for this iteration     100.00

 Free energy of the ion-electron system (eV)
  ---------------------------------------------------
  alpha Z        PSCENC =       324.87461712
  Ewald energy   TEWEN  =    101180.29937552
  -Hartree energ DENC   =   -113468.91169395
  -exchange      EXHF   =         0.00000000
  -V(xc)+E(xc)   XCENC  =        69.10032257
  PAW double counting   =     11288.27476651   -10829.50941267
  entropy T*S    EENTRO =        -0.02082276
  eigenvalues    EBANDS =      -580.41358335
  atomic energy  EATOM  =     11890.63736546
  Solvation  Ediel_sol  =         0.00000000
  ---------------------------------------------------
  free energy    TOTEN  =      -125.66906556 eV

  energy without entropy =     -125.64824280  energy(sigma->0) =     -125.66212464


--------------------------------------------------------------------------------------------------------




--------------------------------------- Iteration      1(   6)  ---------------------------------------


    POTLOK:  cpu time    0.0232: real time    0.0241
    SETDIJ:  cpu time    0.0034: real time    0.0034
     EDDAV:  cpu time   15.5174: real time   15.5177
       DOS:  cpu time    0.0101: real time    0.0101
    CHARGE:  cpu time    0.7388: real time    0.7388
    MIXING:  cpu time    0.0011: real time    0.0012
    --------------------------------------------
      LOOP:  cpu time   16.2939: real time   16.2953

 eigenvalue-minimisations  : 23276
 total energy-change (2. order) : 0.7482159E+01  (-0.3671140E+01)
 number of electron     167.9999993 magnetization 
 augmentation part       49.8671563 magnetization 

 Broyden mixing:
  rms(total) = 0.32343E+01    rms(broyden)= 0.32342E+01
  rms(prec ) = 0.33263E+01
  weight for this iteration     100.00

 eigenvalues of (default mixing * dielectric matrix)
  average eigenvalue GAMMA=   1.1383
  1.1383

 Free energy of the ion-electron system (eV)
  ---------------------------------------------------
  alpha Z        PSCENC =       324.87461712
  Ewald energy   TEWEN  =    101180.29937552
  -Hartree energ DENC   =   -113232.68227054
  -exchange      EXHF   =         0.00000000
  -V(xc)+E(xc)   XCENC  =        65.87104602
  PAW double counting   =     12534.59160809   -12100.02236369
  entropy T*S    EENTRO =        -0.00286431
  eigenvalues    EBANDS =      -781.75341976
  atomic energy  EATOM  =     11890.63736546
  Solvation  Ediel_sol  =         0.00000000
  ---------------------------------------------------
  free energy    TOTEN  =      -118.18690609 eV

  energy without entropy =     -118.18404178  energy(sigma->0) =     -118.18595132


--------------------------------------------------------------------------------------------------------




--------------------------------------- Iteration      1(   7)  ---------------------------------------


    POTLOK:  cpu time    0.0217: real time    0.0227
    SETDIJ:  cpu time    0.0033: real time    0.0033
     EDDAV:  cpu time   17.4040: real time   17.4044
       DOS:  cpu time    0.0098: real time    0.0098
    CHARGE:  cpu time    0.7129: real time    0.7134
    MIXING:  cpu time    0.0015: real time    0.0014
    --------------------------------------------
      LOOP:  cpu time   18.1531: real time   18.1550

 eigenvalue-minimisations  : 26944
 total energy-change (2. order) :-0.1902545E+02  (-0.8230699E+01)
 number of electron     167.9999990 magnetization 
 augmentation part       49.2330854 magnetization 

 Broyden mixing:
  rms(total) = 0.42432E+01    rms(broyden)= 0.42431E+01
  rms(prec ) = 0.46915E+01
  weight for this iteration     100.00

 eigenvalues of (default mixing * dielectric matrix)
  average eigenvalue GAMMA=   1.0809
  1.8869  0.2749

 Free energy of the ion-electron system (eV)
  ---------------------------------------------------
  alpha Z        PSCENC =       324.87461712
  Ewald energy   TEWEN  =    101180.29937552
  -Hartree energ DENC   =   -113429.19771914
  -exchange      EXHF   =         0.00000000
  -V(xc)+E(xc)   XCENC  =        65.44734121
  PAW double counting   =     13516.50165104   -13090.89116936
  entropy T*S    EENTRO =        -0.01376199
  eigenvalues    EBANDS =      -594.87005223
  atomic energy  EATOM  =     11890.63736546
  Solvation  Ediel_sol  =         0.00000000
  ---------------------------------------------------
  free energy    TOTEN  =      -137.21235237 eV

  energy without entropy =     -137.19859038  energy(sigma->0) =     -137.20776504


--------------------------------------------------------------------------------------------------------




--------------------------------------- Iteration      1(   8)  ---------------------------------------


    POTLOK:  cpu time    0.0235: real time    0.0243
    SETDIJ:  cpu time    0.0035: real time    0.0035
     EDDAV:  cpu time   18.8580: real time   18.8586
       DOS:  cpu time    0.0098: real time    0.0098
    CHARGE:  cpu time    0.7030: real time    0.7030
    MIXING:  cpu time    0.0010: real time    0.0010
    --------------------------------------------
      LOOP:  cpu time   19.5988: real time   19.6002

 eigenvalue-minimisations  : 29668
 total energy-change (2. order) : 0.1880752E+02  (-0.3645211E+01)
 number of electron     167.9999999 magnetization 
 augmentation part       50.5178496 magnetization 

 Broyden mixing:
  rms(total) = 0.17357E+01    rms(broyden)= 0.17355E+01
  rms(prec ) = 0.21583E+01
  weight for this iteration     100.00

 eigenvalues of (default mixing * dielectric matrix)
  average eigenvalue GAMMA=   0.9570
  2.0361  0.5643  0.2707

 Free energy of the ion-electron system (eV)
  ---------------------------------------------------
  alpha Z        PSCENC =       324.87461712
  Ewald energy   TEWEN  =    101180.29937552
  -Hartree energ DENC   =   -113274.03847966
  -exchange      EXHF   =         0.00000000
  -V(xc)+E(xc)   XCENC  =        64.92709698
  PAW double counting   =     14465.72280090   -14050.06039216
  entropy T*S    EENTRO =         0.00602902
  eigenvalues    EBANDS =      -720.77324351
  atomic energy  EATOM  =     11890.63736546
  Solvation  Ediel_sol  =         0.00000000
[...]
     21      -5.1835      2.00000
     22      -5.0676      2.00000
     23      -4.9943      2.00000
     24      -4.8521      2.00000
     25      -4.8115      2.00000
     26      -4.7724      2.00000
     27      -4.7074      2.00000
     28      -4.6709      2.00000
     29      -4.5832      2.00000
     30      -4.5451      2.00000
     31      -4.5011      2.00000
     32      -4.4378      2.00000
     33      -4.2992      2.00000
     34      -4.1878      2.00000
     35      -4.1308      2.00000
     36      -4.0720      2.00000
     37      -4.0197      2.00000
     38      -3.9502      2.00000
     39      -3.8612      2.00000
     40      -3.8479      2.00000
     41      -3.7255      2.00000
     42      -3.6609      2.00000
     43      -3.6218      2.00000
     44      -3.5675      2.00000
     45      -3.5075      2.00000
     46      -3.4550      2.00000
     47      -3.3058      2.00000
     48      -3.2966      2.00000
     49      -3.2346      2.00000
     50      -3.1887      2.00000
     51      -3.1371      2.00000
     52      -3.0968      2.00000
     53      -3.0265      2.00000
     54      -2.9470      2.00000
     55      -2.9207      2.00000
     56      -2.8000      2.00000
     57      -2.6885      2.00000
     58      -2.6114      2.00000
     59      -2.5080      2.00000
     60      -2.4264      2.00000
     61      -2.3109      2.00000
     62      -2.2766      2.00000
     63      -2.1937      2.00000
     64      -2.1160      2.00000
     65      -2.0868      2.00000
     66      -2.0009      2.00000
     67      -1.9118      2.00000
     68      -1.8634      2.00000
     69      -1.7436      2.00000
     70      -1.6966      2.00000
     71      -1.6296      2.00000
     72      -1.5473      2.00000
     73      -1.4590      2.00000
     74      -1.4391      2.00000
     75      -1.3780      2.00000
     76      -1.2558      2.00000
     77      -1.1503      2.00000
     78      -1.0814      2.00000
     79      -0.9669      2.00003
     80      -0.9150      2.00013
     81      -0.7994      2.00241
     82      -0.7150      2.01272
     83      -0.5349      2.06986
     84      -0.4398      1.91478
     85      -0.3333      1.26834
     86      -0.2769      0.79605
     87      -0.1880      0.19183
     88      -0.1167     -0.03019
     89      -0.0421     -0.06952
     90       0.6259     -0.00000
     91       0.8899     -0.00000
     92       1.1318     -0.00000
     93       1.2754     -0.00000
     94       1.9849     -0.00000
     95       2.7157     -0.00000
     96       2.8187     -0.00000
     97       3.1623     -0.00000
     98       3.7486     -0.00000
     99       4.0290     -0.00000
    100       4.4901     -0.00000

 k-point    96 :      -0.4375    0.1250    0.0000
  band No.  band energies     occupation 
      1     -12.5084      2.00000
      2      -7.8714      2.00000
      3      -7.7447      2.00000
      4      -7.0622      2.00000
      5      -6.8095      2.00000
      6      -6.4491      2.00000
      7      -6.3012      2.00000
      8      -6.1106      2.00000
      9      -6.0130      2.00000
     10      -5.9381      2.00000
     11      -5.8928      2.00000
     12      -5.7972      2.00000
     13      -5.7620      2.00000
     14      -5.6834      2.00000
     15      -5.6604      2.00000
     16      -5.6220      2.00000
     17      -5.4975      2.00000
     18      -5.4151      2.00000
     19      -5.2932      2.00000
     20      -5.2568      2.00000
     21      -5.2014      2.00000
     22      -5.1031      2.00000
     23      -5.0398      2.00000
     24      -4.8949      2.00000
     25      -4.8593      2.00000
     26      -4.7903      2.00000
     27      -4.7097      2.00000
     28      -4.6593      2.00000
     29      -4.6021      2.00000
     30      -4.5690      2.00000
     31      -4.4977      2.00000
     32      -4.4135      2.00000
     33      -4.2869      2.00000
     34      -4.2363      2.00000
     35      -4.1794      2.00000
     36      -4.1093      2.00000
     37      -4.0520      2.00000
     38      -3.9098      2.00000
     39      -3.8535      2.00000
     40      -3.8385      2.00000
     41      -3.7879      2.00000
     42      -3.6739      2.00000
     43      -3.6334      2.00000
     44      -3.5607      2.00000
     45      -3.5388      2.00000
     46      -3.4502      2.00000
     47      -3.3730      2.00000
     48      -3.3163      2.00000
     49      -3.2518      2.00000
     50      -3.1949      2.00000
     51      -3.1567      2.00000
     52      -3.0654      2.00000
     53      -2.9947      2.00000
     54      -2.9532      2.00000
     55      -2.8852      2.00000
     56      -2.8413      2.00000
     57      -2.6747      2.00000
     58      -2.5345      2.00000
     59      -2.4950      2.00000
     60      -2.3997      2.00000
     61      -2.3513      2.00000
     62      -2.2374      2.00000
     63      -2.2073      2.00000
     64      -2.1448      2.00000
     65      -2.0700      2.00000
     66      -1.9990      2.00000
     67      -1.9083      2.00000
     68      -1.8079      2.00000
     69      -1.7641      2.00000
     70      -1.7348      2.00000
     71      -1.6113      2.00000
     72      -1.5309      2.00000
     73      -1.4909      2.00000
     74      -1.4264      2.00000
     75      -1.3712      2.00000
     76      -1.2901      2.00000
     77      -1.1817      2.00000
     78      -1.0668      2.00000
     79      -1.0217      2.00000
     80      -0.8370      2.00100
     81      -0.7003      2.01621
     82      -0.5902      2.06002
     83      -0.5101      2.05831
     84      -0.4537      1.95959
     85      -0.3488      1.39024
     86      -0.2455      0.54838
     87      -0.2016      0.26211
     88      -0.1337      0.00192
     89       0.0385     -0.03725
     90       0.6346     -0.00000
     91       0.8487     -0.00000
     92       1.1594     -0.00000
     93       1.3654     -0.00000
     94       1.8853     -0.00000
     95       2.4290     -0.00000
     96       2.7931     -0.00000
     97       3.3325     -0.00000
     98       3.7162     -0.00000
     99       4.0985     -0.00000
    100       4.3441     -0.00000


--------------------------------------------------------------------------------------------------------


 soft charge-density along one line, spin component           1
         0         1         2         3         4         5         6         7         8         9
 total charge-density along one line
 
 pseudopotential strength for first ion, spin component:           1
 -7.964   0.002   0.001  -0.006  -0.001  -8.112   0.002   0.001
  0.002  -7.949   0.002   0.003  -0.014   0.002  -8.097   0.002
  0.001   0.002  -7.951   0.006  -0.001   0.001   0.002  -8.099
 -0.006   0.003   0.006  -7.943   0.002  -0.006   0.003   0.006
 -0.001  -0.014  -0.001   0.002  -7.966  -0.001  -0.013  -0.001
 -8.112   0.002   0.001  -0.006  -0.001  -8.244   0.002   0.001
  0.002  -8.097   0.002   0.003  -0.013   0.002  -8.229   0.002
  0.001   0.002  -8.099   0.006  -0.001   0.001   0.002  -8.232
 -0.006   0.003   0.006  -8.092   0.002  -0.006   0.003   0.006
 -0.001  -0.013  -0.001   0.002  -8.114  -0.001  -0.013  -0.001
 -0.001  -0.001  -0.005  -0.003  -0.000  -0.001  -0.001  -0.005
 -0.001  -0.001  -0.008  -0.005  -0.000  -0.001  -0.001  -0.008
 -0.001   0.002  -0.000  -0.000   0.000  -0.001   0.002  -0.000
 -0.000  -0.001   0.002  -0.001  -0.000  -0.000  -0.001   0.002
 -0.000  -0.000   0.000   0.002  -0.001  -0.000  -0.000   0.000
 -0.001   0.002  -0.000  -0.000   0.000  -0.001   0.002  -0.000
 -0.000  -0.001   0.003  -0.001  -0.000  -0.000  -0.001   0.003
 -0.000  -0.000   0.000   0.002  -0.001  -0.000  -0.000   0.000
 total augmentation occupancy for first ion, spin component:           1
  6.016  -0.180   0.069   0.064  -0.063  -4.003   0.172  -0.039  -0.190   0.049   0.076  -0.016  -0.006   0.023   0.001  -0.001
 -0.180   5.387   0.148  -0.080  -0.136   0.172  -3.280  -0.129   0.113  -0.035   0.001  -0.020   0.055  -0.022   0.020  -0.001
  0.069   0.148   6.284   0.015   0.057  -0.039  -0.129  -4.263   0.059  -0.051   0.191  -0.006  -0.005   0.053   0.052  -0.001
  0.064  -0.080   0.015   5.819  -0.185  -0.189   0.113   0.060  -3.647   0.177   0.196  -0.031   0.016   0.071   0.028  -0.000
 -0.063  -0.136   0.057  -0.185   5.942   0.049  -0.035  -0.052   0.177  -3.952  -0.015  -0.011   0.015  -0.015  -0.008  -0.001
 -4.003   0.172  -0.039  -0.189   0.049   3.900  -0.166   0.016   0.284  -0.039  -0.073   0.020   0.009  -0.021  -0.001   0.000
  0.172  -3.280  -0.129   0.113  -0.035  -0.166   3.104   0.111  -0.140   0.169  -0.002   0.012  -0.042   0.009  -0.018   0.001
 -0.039  -0.129  -4.263   0.060  -0.052   0.016   0.111   4.153  -0.117   0.047  -0.181   0.012   0.000  -0.043  -0.050   0.000
 -0.190   0.113   0.059  -3.647   0.177   0.284  -0.140  -0.117   3.415  -0.171  -0.192   0.042  -0.015  -0.064  -0.026   0.000
  0.049  -0.035  -0.051   0.177  -3.952  -0.039   0.169   0.047  -0.171   3.866   0.014   0.006  -0.010   0.009   0.012   0.000
  0.076   0.001   0.191   0.196  -0.015  -0.073  -0.002  -0.181  -0.192   0.014   2.931  -0.775  -0.007  -0.009   0.002   0.000
 -0.016  -0.020  -0.006  -0.031  -0.011   0.020   0.012   0.012   0.042   0.006  -0.775   0.236  -0.001   0.006   0.004  -0.000
 -0.006   0.055  -0.005   0.016   0.015   0.009  -0.042   0.000  -0.015  -0.010  -0.007  -0.001   0.249  -0.000  -0.002  -0.008
  0.023  -0.022   0.053   0.071  -0.015  -0.021   0.009  -0.043  -0.064   0.009  -0.009   0.006  -0.000   0.227  -0.010  -0.000
  0.001   0.020   0.052   0.028  -0.008  -0.001  -0.018  -0.050  -0.026   0.012   0.002   0.004  -0.002  -0.010   0.249   0.000
 -0.001  -0.001  -0.001  -0.000  -0.001   0.000   0.001   0.000   0.000   0.000   0.000  -0.000  -0.008  -0.000   0.000   0.000
 -0.000  -0.000   0.000  -0.002  -0.000   0.000   0.000   0.000   0.001  -0.000   0.001  -0.000  -0.000  -0.008   0.000  -0.000
  0.000  -0.000   0.000  -0.001  -0.001   0.000   0.000   0.001   0.001   0.000  -0.000  -0.000   0.000   0.000  -0.008  -0.000


------------------------ aborting loop because EDIFF is reached ----------------------------------------



 DIPCOR: dipole corrections for dipol
 direction  3 min pos    20,
 dipolmoment           0.000000      0.000000     -0.243704 electrons x Angstroem
 Tr[quadrupol]      -934.195871

 energy correction for charged system         0.000000 eV
 dipol+quadrupol energy correction            0.006520 eV
 added-field ion interaction          0.000000 eV  (added to PSCEN)

 
  *************** adding dipol energy to TOTEN NOW **************** 
    CHARGE:  cpu time    0.7113: real time    0.7113
    FORLOC:  cpu time    0.0070: real time    0.0070
    FORNL :  cpu time    3.0126: real time    3.0127
    STRESS:  cpu time    9.0918: real time    9.0919
    FORCOR:  cpu time    0.0289: real time    0.0292
    FORHAR:  cpu time    0.0122: real time    0.0122
    MIXING:  cpu time    0.0040: real time    0.0040
    OFIELD:  cpu time    0.0000: real time    0.0000

  FORCE on cell =-STRESS in cart. coord.  units (eV):
  Direction    XX          YY          ZZ          XY          YZ          ZX
  --------------------------------------------------------------------------------------
  Alpha Z   324.87462   324.87462   324.87462
  Ewald  110041.69689110054.25190************    21.07199   -11.02179   -11.41707
  Hartree112546.31752112557.19098************    13.55318    -2.21183    -4.84604
  E(xc)    -737.10605  -737.10200  -741.15192     0.06482    -0.05906     0.01974
  Local  ************************227730.61803   -33.85353     9.49608    16.35230
  n-local    46.38017    46.24319    38.15442     0.08990    -0.29230    -0.44804
  augment   836.43297   836.60705   856.53515    -0.20249     1.01029    -0.08158
  Kinetic  2386.39068  2386.10510  2440.97734    -0.49450     3.42952    -0.03989
  Fock        0.00000     0.00000     0.00000     0.00000     0.00000     0.00000
  -------------------------------------------------------------------------------------
  Total     -11.17209   -11.31579    -1.60596     0.22938     0.35091    -0.46058
  in kB     -21.71952   -21.99889    -3.12213     0.44593     0.68220    -0.89540
  external pressure =      -15.61 kB  Pullay stress =        0.00 kB


 VOLUME and BASIS-vectors are now :
 -----------------------------------------------------------------------------
  energy-cutoff  :      350.00
  volume of cell :      824.13
      direct lattice vectors                 reciprocal lattice vectors
     5.557859300  0.000000000  0.000000000     0.179925390 -0.103879972  0.000000000
     2.778929650  4.813247345  0.000000000     0.000000000  0.207759944  0.000000000
     0.000000000  0.000000000 30.806959674     0.000000000  0.000000000  0.032460198

  length of vectors
     5.557859300  5.557859300 30.806959674     0.207759944  0.207759944  0.032460198


 FORCES acting on ions
    electron-ion (+dipol)            ewald-force                    non-local-force                 convergence-correction
 -----------------------------------------------------------------------------------------------
   -.335E+01 -.468E+01 -.823E+03   0.370E+01 0.434E+01 0.824E+03   -.337E+00 0.340E+00 -.330E+00   -.290E-03 0.248E-03 -.357E-02
   0.219E+01 0.209E+01 -.134E+04   -.237E+01 -.231E+01 0.134E+04   0.135E+00 0.195E+00 -.142E+01   -.558E-04 0.240E-05 0.143E-03
   0.516E+01 -.443E+02 -.345E+03   -.562E+01 0.494E+02 0.347E+03   0.427E+00 -.510E+01 -.195E+01   0.296E-05 -.864E-04 -.544E-04
   0.390E+02 0.248E+02 -.343E+03   -.435E+02 -.277E+02 0.344E+03   0.446E+01 0.294E+01 -.148E+01   0.583E-04 0.537E-04 -.563E-04
   -.407E+02 0.219E+02 -.344E+03   0.453E+02 -.243E+02 0.346E+03   -.459E+01 0.240E+01 -.181E+01   -.694E-04 0.424E-04 -.570E-04
   -.289E+01 0.539E+01 -.360E+03   0.276E+01 -.632E+01 0.362E+03   0.255E+00 0.117E+01 -.278E+01   0.942E-05 -.408E-04 0.428E-04
   -.163E+01 0.131E+01 0.266E+04   0.162E+01 -.128E+01 -.266E+04   0.339E-02 -.162E-01 -.150E+00   -.254E-04 -.802E-06 0.155E-03
   -.522E+01 0.136E+01 0.113E+04   0.538E+01 -.140E+01 -.113E+04   0.177E-01 -.535E-01 -.626E+00   -.117E-03 0.300E-03 -.150E-02
   0.485E+01 -.371E+01 0.115E+04   -.495E+01 0.388E+01 -.115E+04   -.193E-01 -.739E-01 0.976E-01   0.139E-03 0.223E-04 -.112E-02
   -.981E+00 0.484E+01 -.735E+03   0.113E+01 -.504E+01 0.735E+03   -.133E+00 0.248E+00 0.323E+00   0.252E-07 -.553E-04 -.340E-02
   0.700E+00 0.227E+01 -.710E+03   -.864E+00 -.208E+01 0.710E+03   0.136E+00 -.245E+00 0.344E+00   0.687E-05 -.301E-03 -.318E-02
   -.418E+01 0.380E+01 0.114E+04   0.429E+01 -.387E+01 -.114E+04   0.104E-01 -.350E-02 -.601E+00   -.293E-03 -.703E-04 -.151E-02
   0.235E+01 -.360E+01 -.749E+03   -.268E+01 0.381E+01 0.749E+03   0.396E+00 -.192E+00 -.765E-01   0.224E-03 0.190E-03 -.324E-02
   -.130E+02 -.615E+01 -.264E+04   0.122E+02 0.555E+01 0.264E+04   0.848E+00 0.623E+00 -.523E+01   -.190E-04 0.152E-03 -.102E-02
   0.126E+02 -.718E+01 -.257E+04   -.126E+02 0.696E+01 0.257E+04   -.120E+00 0.279E+00 0.137E+01   -.272E-04 0.730E-04 -.137E-02
   -.380E+01 -.160E+01 -.256E+04   0.340E+01 0.186E+00 0.256E+04   0.377E+00 0.124E+01 -.509E+01   -.136E-03 -.125E-03 -.168E-02
   0.155E+01 0.990E+00 -.256E+04   -.149E+01 -.921E+00 0.256E+04   -.767E-01 -.981E-01 0.118E+01   0.139E-03 -.122E-03 -.162E-02
   -.300E+01 0.148E+01 0.296E+04   0.287E+01 -.136E+01 -.295E+04   0.182E+00 -.144E+00 -.565E+00   0.269E-05 0.215E-04 0.255E-03
   0.261E+01 -.486E+00 0.295E+04   -.250E+01 0.510E+00 -.295E+04   -.133E+00 -.396E-01 -.650E+00   -.369E-04 -.479E-04 -.187E-04
   0.449E+01 -.330E+00 0.117E+04   -.467E+01 0.324E+00 -.117E+04   0.259E-01 0.167E-01 -.119E+00   0.284E-03 -.264E-03 -.135E-02
   0.154E+01 -.168E+01 0.295E+04   -.148E+01 0.160E+01 -.295E+04   -.411E-01 0.117E+00 -.803E+00   0.263E-04 0.631E-04 -.137E-03
 -----------------------------------------------------------------------------------------------
   -.180E+01 -.358E+01 0.204E+02   -.486E-13 0.233E-13 -.909E-12   0.182E+01 0.359E+01 -.204E+02   -.178E-03 0.552E-04 -.243E-01
 
 
 POSITION                                       TOTAL-FORCE (eV/Angst)
 -----------------------------------------------------------------------------------
      6.98220      3.99427     16.80902         0.005477      0.002593      0.084140
      8.25406      4.69542     21.45301        -0.048511     -0.030080     -0.044957
      5.39668      0.90860     21.84268        -0.031444     -0.018718     -0.050866
      7.37168      4.11397     21.75266        -0.001821     -0.027711     -0.007647
      3.61749      4.21660     21.81828        -0.000450     -0.013995     -0.052947
      1.27831      1.76693     20.56140         0.125353      0.245477      0.059677
      2.78444      0.02693     12.13688        -0.003662      0.018006      1.206132
      2.79089      3.22467     14.49484         0.176418     -0.101717     -0.229560
      5.57392      3.22402     14.45760        -0.126911      0.097228     -0.448331
      5.57868      1.57665     16.78271         0.012989      0.041537     -0.206492
      2.80289      1.58879     16.75999        -0.029454     -0.051788      0.031379
      1.40449      0.81276     14.48716         0.123251     -0.072583     -0.190328
      4.17426      4.00733     16.80618         0.067671      0.019615      0.008642
      2.78320      4.74511     19.37444         0.055883      0.027435      0.054207
      5.59136      4.76079     19.05834        -0.174885      0.061181      0.402742
      1.41303      2.35777     19.12607        -0.025710     -0.176975      0.283615
      4.19745      2.36005     19.05418        -0.021355     -0.029285     -0.047550
      4.17087      2.43691     12.12666         0.053692     -0.030455     -0.257717
      1.40510      2.42782     12.13887        -0.023948     -0.016637     -0.074229
      4.18605      0.82055     14.44731        -0.146844      0.010256     -0.441313
      0.01554      0.02046     12.14275         0.014259      0.046619     -0.078601
 -----------------------------------------------------------------------------------
    total drift:                                0.019265      0.011546      0.005100


--------------------------------------------------------------------------------------------------------



  FREE ENERGIE OF THE ION-ELECTRON SYSTEM (eV)
  ---------------------------------------------------
  free  energy   TOTEN  =      -115.41346175 eV

  energy  without entropy=     -115.38747676  energy(sigma->0) =     -115.40480008
 


--------------------------------------------------------------------------------------------------------


    POTLOK:  cpu time    0.0260: real time    0.0261


--------------------------------------------------------------------------------------------------------


     LOOP+:  cpu time  541.8573: real time  541.9465
    4ORBIT:  cpu time    0.0000: real time    0.0000

 total amount of memory used by VASP MPI-rank0   164323. kBytes
=======================================================================

   base      :      30000. kBytes
   nonlr-proj:       2370. kBytes
   fftplans  :       2967. kBytes
   grid      :       6321. kBytes
   one-center:         93. kBytes
   wavefun   :     122572. kBytes
 
  
  
 General timing and accounting informations for this job:
 ========================================================
  
                  Total CPU time used (sec):      549.564
                            User time (sec):      548.279
                          System time (sec):        1.285
                         Elapsed time (sec):      549.845
  
                   Maximum memory used (kb):      206468.
                   Average memory used (kb):           0.
  
                          Minor page faults:        79813
                          Major page faults:            0
                 Voluntary context switches:         1281
