 vasp.5.4.4.18Apr17-6-g9f103f2a35 (build Apr 28 2017 10:53:45) complex          
  
 executed on             LinuxIFC date 2019.07.18  17:25:25
 running on   16 total cores
 distrk:  each k-point on   16 cores,    1 groups
 distr:  one band on NCORES_PER_BAND=   4 cores,    4 groups


--------------------------------------------------------------------------------------------------------


 INCAR:
 POTCAR:    PAW_PBE Au 04Oct2007                  
 POTCAR:    PAW_PBE C 08Apr2002                   
 POTCAR:    PAW_PBE H 15Jun2001                   
 POTCAR:    PAW_PBE Ir 06Sep2000                  
 POTCAR:    PAW_PBE Pt 04Feb2005                  
 POTCAR:    PAW_PBE Au 04Oct2007                  
   VRHFIN =Au: s1d10                                                            
   LEXCH  = PE                                                                  
   EATOM  =   926.0867 eV,   68.0654 Ry                                         
                                                                                
   TITEL  = PAW_PBE Au 04Oct2007                                                
   LULTRA =        F    use ultrasoft PP ?                                      
   IUNSCR =        1    unscreen: 0-lin 1-nonlin 2-no                           
   RPACOR =    2.330    partial core radius                                     
   POMASS =  196.966; ZVAL   =   11.000    mass and valenz                      
   RCORE  =    2.500    outmost cutoff radius                                   
   RWIGS  =    2.840; RWIGS  =    1.503    wigner-seitz radius (au A)           
   ENMAX  =  229.943; ENMIN  =  172.457 eV                                      
   ICORE  =        3    local potential                                         
   LCOR   =        T    correct aug charges                                     
   LPAW   =        T    paw PP                                                  
   EAUG   =  356.670                                                            
   DEXC   =    0.000                                                            
   RMAX   =    2.562    core radius for proj-oper                               
   RAUG   =    1.300    factor for augmentation sphere                          
   RDEP   =    2.598    radius for radial grids                                 
   RDEPT  =    2.193    core radius for aug-charge                              
                                                                                
   Atomic configuration                                                         
   16 entries                                                                   
     n  l   j            E        occ.                                          
     1  0  0.50    -80748.5001   2.0000                                         
     2  0  0.50    -14244.7466   2.0000                                         
     2  1  1.50    -12310.9591   6.0000                                         
     3  0  0.50     -3362.1768   2.0000                                         
     3  1  1.50     -2801.5463   6.0000                                         
     3  2  2.50     -2203.8206  10.0000                                         
     4  0  0.50      -729.8168   2.0000                                         
     4  1  1.50      -546.0527   6.0000                                         
     4  2  2.50      -325.7302  10.0000                                         
     4  3  3.50       -81.1472  14.0000                                         
     5  0  0.50      -108.3201   2.0000                                         
     5  1  1.50       -59.7479   6.0000                                         
     5  2  2.50        -6.8783  10.0000                                         
     6  0  0.50        -5.7602   1.0000                                         
     6  1  1.50        -6.8029   0.0000                                         
     5  3  2.50        -1.3606   0.0000                                         
   Description                                                                  
     l       E           TYP  RCUT    TYP  RCUT                                 
     2     -6.8782861     23  2.500                                             
     2     -8.2388687     23  2.500                                             
     0     -5.7601759     23  2.500                                             
     0     -0.8493231     23  2.500                                             
     1     -2.7211652     23  2.500                                             
     1     27.2116520     23  2.500                                             
     3     -1.3605826     23  2.500                                             
  local pseudopotential read in
  partial core-charges read in
  partial kinetic energy density read in
  atomic valenz-charges read in
  non local Contribution for L=           2  read in
    real space projection operators read in
  non local Contribution for L=           2  read in
    real space projection operators read in
  non local Contribution for L=           0  read in
    real space projection operators read in
  non local Contribution for L=           0  read in
    real space projection operators read in
  non local Contribution for L=           1  read in
    real space projection operators read in
  non local Contribution for L=           1  read in
    real space projection operators read in
    PAW grid and wavefunctions read in
 
   number of l-projection  operators is LMAX  =           6
   number of lm-projection operators is LMMAX =          18
 
 POTCAR:    PAW_PBE C 08Apr2002                   
   VRHFIN =C: s2p2                                                              
   LEXCH  = PE                                                                  
   EATOM  =   147.1560 eV,   10.8157 Ry                                         
                                                                                
   TITEL  = PAW_PBE C 08Apr2002                                                 
   LULTRA =        F    use ultrasoft PP ?                                      
   IUNSCR =        1    unscreen: 0-lin 1-nonlin 2-no                           
   RPACOR =    1.200    partial core radius                                     
   POMASS =   12.011; ZVAL   =    4.000    mass and valenz                      
   RCORE  =    1.500    outmost cutoff radius                                   
   RWIGS  =    1.630; RWIGS  =    0.863    wigner-seitz radius (au A)           
   ENMAX  =  400.000; ENMIN  =  300.000 eV                                      
   ICORE  =        2    local potential                                         
   LCOR   =        T    correct aug charges                                     
   LPAW   =        T    paw PP                                                  
   EAUG   =  644.873                                                            
   DEXC   =    0.000                                                            
   RMAX   =    1.529    core radius for proj-oper                               
   RAUG   =    1.300    factor for augmentation sphere                          
   RDEP   =    1.501    radius for radial grids                                 
   RDEPT  =    1.300    core radius for aug-charge                              
                                                                                
   Atomic configuration                                                         
    4 entries                                                                   
     n  l   j            E        occ.                                          
     1  0  0.50      -273.3789   2.0000                                         
     2  0  0.50       -13.7508   2.0000                                         
     2  1  0.50        -5.2854   2.0000                                         
     3  2  1.50        -5.4423   0.0000                                         
   Description                                                                  
     l       E           TYP  RCUT    TYP  RCUT                                 
     0    -13.7508458     23  1.200                                             
     0     -8.2022199     23  1.200                                             
     1     -5.2854383     23  1.500                                             
     1     34.0145650     23  1.500                                             
     2     -5.4423304      7  1.500                                             
  local pseudopotential read in
  partial core-charges read in
  partial kinetic energy density read in
  atomic valenz-charges read in
  non local Contribution for L=           0  read in
    real space projection operators read in
  non local Contribution for L=           0  read in
    real space projection operators read in
  non local Contribution for L=           1  read in
    real space projection operators read in
  non local Contribution for L=           1  read in
    real space projection operators read in
    PAW grid and wavefunctions read in
 
   number of l-projection  operators is LMAX  =           4
   number of lm-projection operators is LMMAX =           8
 
 POTCAR:    PAW_PBE H 15Jun2001                   
   VRHFIN =H: ultrasoft test                                                    
   LEXCH  = PE                                                                  
   EATOM  =    12.4884 eV,    0.9179 Ry                                         
                                                                                
   TITEL  = PAW_PBE H 15Jun2001                                                 
   LULTRA =        F    use ultrasoft PP ?                                      
   IUNSCR =        0    unscreen: 0-lin 1-nonlin 2-no                           
   RPACOR =    0.000    partial core radius                                     
   POMASS =    1.000; ZVAL   =    1.000    mass and valenz                      
   RCORE  =    1.100    outmost cutoff radius                                   
   RWIGS  =    0.700; RWIGS  =    0.370    wigner-seitz radius (au A)           
   ENMAX  =  250.000; ENMIN  =  200.000 eV                                      
   RCLOC  =    0.701    cutoff for local pot                                    
   LCOR   =        T    correct aug charges                                     
   LPAW   =        T    paw PP                                                  
   EAUG   =  400.000                                                            
   RMAX   =    1.123    core radius for proj-oper                               
   RAUG   =    1.200    factor for augmentation sphere                          
   RDEP   =    1.112    radius for radial grids                                 
   RDEPT  =    0.926    core radius for aug-charge                              
                                                                                
   Atomic configuration                                                         
    2 entries                                                                   
     n  l   j            E        occ.                                          
     1  0  0.50        -6.4927   1.0000                                         
     2  1  0.50        -3.4015   0.0000                                         
   Description                                                                  
     l       E           TYP  RCUT    TYP  RCUT                                 
     0     -6.4927494     23  1.100                                             
     0      6.8029130     23  1.100                                             
     1     -4.0817478     23  1.100                                             
  local pseudopotential read in
  atomic valenz-charges read in
  non local Contribution for L=           0  read in
    real space projection operators read in
  non local Contribution for L=           0  read in
    real space projection operators read in
  non local Contribution for L=           1  read in
    real space projection operators read in
    PAW grid and wavefunctions read in
 
   number of l-projection  operators is LMAX  =           3
   number of lm-projection operators is LMMAX =           5
 
 POTCAR:    PAW_PBE Ir 06Sep2000                  
   VRHFIN =Ir: s1d8                                                             
   LEXCH  = PE                                                                  
   EATOM  =   560.1833 eV,   41.1723 Ry                                         
                                                                                
   TITEL  = PAW_PBE Ir 06Sep2000                                                
   LULTRA =        F    use ultrasoft PP ?                                      
   IUNSCR =        1    unscreen: 0-lin 1-nonlin 2-no                           
   RPACOR =    2.250    partial core radius                                     
   POMASS =  192.220; ZVAL   =    9.000    mass and valenz                      
   RCORE  =    2.600    outmost cutoff radius                                   
   RWIGS  =    2.690; RWIGS  =    1.423    wigner-seitz radius (au A)           
   ENMAX  =  210.864; ENMIN  =  158.148 eV                                      
   RCLOC  =    1.857    cutoff for local pot                                    
   LCOR   =        T    correct aug charges                                     
   LPAW   =        T    paw PP                                                  
   EAUG   =  318.962                                                            
   DEXC   =    0.000                                                            
   RMAX   =    2.667    core radius for proj-oper                               
   RAUG   =    1.300    factor for augmentation sphere                          
   RDEP   =    2.748    radius for radial grids                                 
   RDEPT  =    2.300    core radius for aug-charge                              
                                                                                
   Atomic configuration                                                         
   16 entries                                                                   
     n  l   j            E        occ.                                          
     1  0  0.50    -76100.0449   2.0000                                         
     2  0  0.50    -13308.1683   2.0000                                         
     2  1  1.50    -11558.0021   6.0000                                         
     3  0  0.50     -3110.7274   2.0000                                         
     3  1  1.50     -2599.2109   6.0000                                         
     3  2  2.50     -2037.1515  10.0000                                         
     4  0  0.50      -661.6001   2.0000                                         
     4  1  1.50      -493.8981   6.0000                                         
     4  2  2.50      -288.1909  10.0000                                         
     4  3  3.50       -59.5718  14.0000                                         
     5  0  0.50       -95.3879   2.0000                                         
     5  1  1.50       -52.2747   6.0000                                         
     5  2  2.50        -5.4180   8.0000                                         
     6  0  0.50        -5.5479   1.0000                                         
     6  1  1.50        -6.8029   0.0000                                         
     5  3  2.50        -1.3606   0.0000                                         
   Description                                                                  
     l       E           TYP  RCUT    TYP  RCUT                                 
     2     -5.4179967     23  2.600                                             
     2     -6.7785793     23  2.600                                             
     0     -5.5478636     23  2.600                                             
     0      2.2542272     23  2.600                                             
     1     -2.7211652     23  2.600                                             
     1     20.4087390     23  2.600                                             
  local pseudopotential read in
  partial core-charges read in
  partial kinetic energy density read in
  atomic valenz-charges read in
  non local Contribution for L=           2  read in
    real space projection operators read in
  non local Contribution for L=           2  read in
    real space projection operators read in
  non local Contribution for L=           0  read in
    real space projection operators read in
  non local Contribution for L=           0  read in
    real space projection operators read in
  non local Contribution for L=           1  read in
    real space projection operators read in
  non local Contribution for L=           1  read in
    real space projection operators read in
    PAW grid and wavefunctions read in
 
   number of l-projection  operators is LMAX  =           6
   number of lm-projection operators is LMMAX =          18
 
 POTCAR:    PAW_PBE Pt 04Feb2005                  
   VRHFIN =Pt: s1d9                                                             
   LEXCH  = PE                                                                  
   EATOM  =   729.1176 eV,   53.5886 Ry                                         
                                                                                
   TITEL  = PAW_PBE Pt 04Feb2005                                                
   LULTRA =        F    use ultrasoft PP ?                                      
   IUNSCR =        1    unscreen: 0-lin 1-nonlin 2-no                           
   RPACOR =    2.330    partial core radius                                     
   POMASS =  195.080; ZVAL   =   10.000    mass and valenz                      
   RCORE  =    2.600    outmost cutoff radius                                   
   RWIGS  =    2.750; RWIGS  =    1.455    wigner-seitz radius (au A)           
   ENMAX  =  230.283; ENMIN  =  172.712 eV                                      
   ICORE  =        3    local potential                                         
   LCOR   =        T    correct aug charges                                     
   LPAW   =        T    paw PP                                                  
   EAUG   =  358.966                                                            
   DEXC   =    0.000                                                            
   RMAX   =    2.658    core radius for proj-oper                               
   RAUG   =    1.300    factor for augmentation sphere                          
   RDEP   =    2.761    radius for radial grids                                 
   RDEPT  =    2.203    core radius for aug-charge                              
                                                                                
   Atomic configuration                                                         
   16 entries                                                                   
     n  l   j            E        occ.                                          
     1  0  0.50    -78401.1885   2.0000                                         
     2  0  0.50    -13770.7750   2.0000                                         
     2  1  1.50    -11931.0468   6.0000                                         
     3  0  0.50     -3234.7234   2.0000                                         
     3  1  1.50     -2699.2216   6.0000                                         
     3  2  2.50     -2119.5714  10.0000                                         
     4  0  0.50      -695.1528   2.0000                                         
     4  1  1.50      -519.6034   6.0000                                         
     4  2  2.50      -306.6786  10.0000                                         
     4  3  3.50       -70.1041  14.0000                                         
     5  0  0.50      -101.7747   2.0000                                         
     5  1  1.50       -55.9873   6.0000                                         
     5  2  2.50        -6.1423   9.0000                                         
     6  0  0.50        -5.6573   1.0000                                         
     6  1  1.50        -6.8029   0.0000                                         
     5  3  2.50        -1.3606   0.0000                                         
   Description                                                                  
     l       E           TYP  RCUT    TYP  RCUT                                 
     2     -6.1423404     23  2.500                                             
     2     -7.5029230     23  2.500                                             
     0     -5.6573207     23  2.500                                             
     0      0.7416693     23  2.500                                             
     1     -2.7211652     23  2.600                                             
     1     20.4087390     23  2.600                                             
     3     -1.3605826     23  2.500                                             
  local pseudopotential read in
  partial core-charges read in
  partial kinetic energy density read in
  atomic valenz-charges read in
  non local Contribution for L=           2  read in
    real space projection operators read in
  non local Contribution for L=           2  read in
    real space projection operators read in
  non local Contribution for L=           0  read in
    real space projection operators read in
  non local Contribution for L=           0  read in
    real space projection operators read in
  non local Contribution for L=           1  read in
    real space projection operators read in
  non local Contribution for L=           1  read in
    real space projection operators read in
    PAW grid and wavefunctions read in
 
   number of l-projection  operators is LMAX  =           6
   number of lm-projection operators is LMMAX =          18
 
 Optimization of the real space projectors (new method)

 maximal supplied QI-value         = 15.12
 optimisation between [QCUT,QGAM] = [  9.52, 19.05] = [ 25.40,101.61] Ry 
 Optimized for a Real-space Cutoff    1.57 Angstroem

   l    n(q)    QCUT    max X(q) W(low)/X(q) W(high)/X(q)  e(spline) 
   2      8     9.524    60.898    0.38E-03    0.43E-04    0.84E-07
   2      8     9.524    58.894    0.38E-03    0.47E-04    0.88E-07
   0      9     9.524   109.617    0.60E-04    0.64E-04    0.80E-07
   0      9     9.524    75.026    0.59E-04    0.62E-04    0.78E-07
   1      8     9.524    16.344    0.99E-04    0.18E-03    0.87E-07
   1      8     9.524    10.160    0.78E-04    0.15E-03    0.74E-07
 Optimization of the real space projectors (new method)

 maximal supplied QI-value         = 25.13
 optimisation between [QCUT,QGAM] = [  9.55, 19.10] = [ 25.54,102.17] Ry 
 Optimized for a Real-space Cutoff    1.39 Angstroem

   l    n(q)    QCUT    max X(q) W(low)/X(q) W(high)/X(q)  e(spline) 
   0      8     9.551   115.676    0.39E-03    0.54E-03    0.29E-06
   0      8     9.551    87.132    0.39E-03    0.54E-03    0.28E-06
   1      7     9.551     4.429    0.35E-03    0.51E-04    0.29E-06
   1      7     9.551     2.733    0.22E-03    0.42E-04    0.31E-06
 Optimization of the real space projectors (new method)

 maximal supplied QI-value         = 34.20
 optimisation between [QCUT,QGAM] = [  9.58, 19.15] = [ 25.68,102.74] Ry 
 Optimized for a Real-space Cutoff    1.31 Angstroem

   l    n(q)    QCUT    max X(q) W(low)/X(q) W(high)/X(q)  e(spline) 
   0      7     9.577    19.460    0.33E-03    0.12E-03    0.35E-06
   0      7     9.577    12.209    0.33E-03    0.11E-03    0.33E-06
   1      7     9.577     4.655    0.39E-03    0.14E-02    0.33E-06
 Optimization of the real space projectors (new method)

 maximal supplied QI-value         = 14.36
 optimisation between [QCUT,QGAM] = [  9.48, 19.10] = [ 25.16,102.17] Ry 
 Optimized for a Real-space Cutoff    1.57 Angstroem

   l    n(q)    QCUT    max X(q) W(low)/X(q) W(high)/X(q)  e(spline) 
   2      8     9.479   134.116    0.18E-03    0.75E-03    0.26E-06
   2      8     9.479   130.192    0.18E-03    0.75E-03    0.27E-06
   0      9     9.479    60.310    0.39E-03    0.24E-03    0.63E-07
   0      9     9.479    39.218    0.36E-03    0.22E-03    0.59E-07
   1      8     9.479    18.439    0.20E-03    0.15E-03    0.16E-06
   1      8     9.479    12.760    0.16E-03    0.11E-03    0.13E-06
 Optimization of the real space projectors (new method)

 maximal supplied QI-value         = 14.36
 optimisation between [QCUT,QGAM] = [  9.48, 19.10] = [ 25.16,102.17] Ry 
 Optimized for a Real-space Cutoff    1.57 Angstroem

   l    n(q)    QCUT    max X(q) W(low)/X(q) W(high)/X(q)  e(spline) 
   2      8     9.479    66.195    0.35E-03    0.53E-04    0.87E-07
   2      8     9.479    64.643    0.35E-03    0.57E-04    0.91E-07
   0      9     9.479    95.520    0.50E-04    0.62E-04    0.81E-07
   0      9     9.479    63.403    0.49E-04    0.60E-04    0.78E-07
   1      8     9.479    19.961    0.10E-03    0.87E-04    0.11E-06
   1      8     9.479    13.289    0.88E-04    0.71E-04    0.97E-07
  PAW_PBE Au 04Oct2007                  :
 energy of atom  1       EATOM= -926.0867
 kinetic energy error for atom=    0.0152 (will be added to EATOM!!)
  PAW_PBE C 08Apr2002                   :
 energy of atom  2       EATOM= -147.1560
 kinetic energy error for atom=    0.0854 (will be added to EATOM!!)
  PAW_PBE H 15Jun2001                   :
 energy of atom  3       EATOM=  -12.4884
 kinetic energy error for atom=    0.0203 (will be added to EATOM!!)
  PAW_PBE Ir 06Sep2000                  :
 energy of atom  4       EATOM= -560.1833
 kinetic energy error for atom=    0.0056 (will be added to EATOM!!)
  PAW_PBE Pt 04Feb2005                  :
 energy of atom  5       EATOM= -729.1176
 kinetic energy error for atom=    0.0144 (will be added to EATOM!!)
 
 
 POSCAR: Au  C  H Ir Pt                          
  positions in cartesian coordinates
  No initial velocities read in
 exchange correlation table for  LEXCH =        8
   RHO(1)=    0.500       N(1)  =     2000
   RHO(2)=  100.500       N(2)  =     4000
 


--------------------------------------------------------------------------------------------------------


 ion  position               nearest neighbor table
   1  0.340  0.333  0.543-  20 2.77  13 2.78  21 2.78  21 2.78  13 2.78  20 2.78   8 2.79  17 2.79
                            16 2.79  15 2.81   9 2.82  10 2.82
   2  0.004  0.038  0.705-   6 1.10   4 1.10   5 1.10   3 1.15  11 2.68
   3  0.014  0.153  0.674-   2 1.15  11 1.96
   4  0.879  0.215  0.726-   2 1.10
   5  0.902  0.914  0.701-   2 1.10
   6  0.219  0.908  0.716-   2 1.10
   7  0.502  0.003  0.393-  18 2.78  19 2.78  12 2.78  12 2.78  19 2.78  18 2.78  17 2.81  16 2.82
                            14 2.82
   8  0.504  0.497  0.618-   9 2.77  11 2.77  10 2.78  10 2.78  11 2.79   9 2.79   1 2.79  13 2.82
                            20 2.82
   9  0.006  0.496  0.618-  11 2.76   8 2.77  10 2.78  10 2.78   8 2.79  11 2.79  13 2.81   1 2.82
                            21 2.83
  10  0.506  0.996  0.618-  11 2.77   9 2.78   8 2.78   8 2.78   9 2.78  11 2.79  20 2.80  21 2.81
                             1 2.82
  11  0.004  0.994  0.618-   3 1.96   2 2.68   9 2.76  10 2.77   8 2.77   8 2.79  21 2.79  10 2.79
                             9 2.79  20 2.83  13 2.85
  12  0.002  0.003  0.393-   7 2.78  19 2.78  18 2.78  18 2.78  19 2.78   7 2.78  16 2.82  15 2.82
                            17 2.83
  13  0.839  0.334  0.543-  21 2.77   1 2.78  20 2.78  20 2.78   1 2.78  21 2.78  17 2.78  16 2.79
                            14 2.79   9 2.81   8 2.82  11 2.85
  14  0.671  0.670  0.469-  16 2.78  15 2.78  17 2.78  17 2.78  15 2.78  16 2.78  20 2.78  13 2.79
                            21 2.80  19 2.82   7 2.82  18 2.84
  15  0.171  0.669  0.469-  14 2.78  16 2.78  17 2.78  17 2.78  16 2.78  14 2.78  20 2.79  21 2.79
                             1 2.81  18 2.82  12 2.82  19 2.83
  16  0.671  0.170  0.468-  14 2.78  17 2.78  15 2.78  15 2.78  17 2.78  14 2.78  13 2.79   1 2.79
                            21 2.81  12 2.82   7 2.82  18 2.82
  17  0.171  0.169  0.469-  16 2.78  14 2.78  15 2.78  15 2.78  14 2.78  16 2.78  13 2.78   1 2.79
                            20 2.80   7 2.81  19 2.82  12 2.83
  18  0.502  0.503  0.393-   7 2.78  19 2.78  12 2.78  12 2.78  19 2.78   7 2.78  15 2.82  16 2.82
                            14 2.84
  19  0.002  0.503  0.393-   7 2.78  18 2.78  12 2.78  12 2.78  18 2.78   7 2.78  14 2.82  17 2.82
                            15 2.83
  20  0.339  0.834  0.543-  21 2.77   1 2.77  13 2.78  13 2.78   1 2.78  14 2.78  15 2.79  21 2.79
                            17 2.80  10 2.80   8 2.82  11 2.83
  21  0.841  0.834  0.543-  20 2.77  13 2.77   1 2.78   1 2.78  13 2.78  20 2.79  11 2.79  15 2.79
                            14 2.80  16 2.81  10 2.81   9 2.83
 
  LATTYP: Found a hexagonal cell.
 ALAT       =     5.5578593001
 C/A-ratio  =     5.5429542221
  
  Lattice vectors:
  
 A1 = (   2.7789296501,  -4.8132473446,   0.0000000000)
 A2 = (  -5.5578593001,   0.0000000000,   0.0000000000)
 A3 = (   0.0000000000,   0.0000000000, -30.8069596737)


Analysis of symmetry for initial positions (statically):
=====================================================================
 Subroutine PRICEL returns:
 Original cell was already a primitive cell.
 

 Routine SETGRP: Setting up the symmetry group for a 
 hexagonal supercell.


 Subroutine GETGRP returns: Found  1 space group operations
 (whereof  1 operations were pure point group operations)
 out of a pool of 24 trial point group operations.


The static configuration has the point symmetry C_1 .


Analysis of symmetry for dynamics (positions and initial velocities):
=====================================================================
 Subroutine PRICEL returns:
 Original cell was already a primitive cell.
 

 Routine SETGRP: Setting up the symmetry group for a 
 hexagonal supercell.


 Subroutine GETGRP returns: Found  1 space group operations
 (whereof  1 operations were pure point group operations)
 out of a pool of 24 trial point group operations.


The dynamic configuration has the point symmetry C_1 .


 Subroutine INISYM returns: Found  1 space group operations
 (whereof  1 operations are pure point group operations),
 and found     1 'primitive' translations

 
 
 KPOINTS: 0.6.Ir1.Au9                             

Automatic generation of k-mesh.
Space group operators:
 irot       det(A)        alpha          n_x          n_y          n_z        tau_x        tau_y        tau_z
    1     1.000000     0.000001     1.000000     0.000000     0.000000     0.000000     0.000000     0.000000
 
 Subroutine IBZKPT returns following result:
 ===========================================
 
 Found     96 irreducible k-points:
 
 Following reciprocal coordinates:
            Coordinates               Weight
  0.062500  0.062500  0.000000     16.000000
  0.000000  0.062500  0.000000     16.000000
 -0.062500  0.000000  0.000000     16.000000
  0.187500  0.062500  0.000000     16.000000
  0.125000  0.187500  0.000000     16.000000
 -0.062500  0.125000  0.000000     16.000000
  0.125000 -0.062500  0.000000     16.000000
 -0.062500 -0.187500  0.000000     16.000000
 -0.187500 -0.125000  0.000000     16.000000
  0.312500  0.062500  0.000000     16.000000
  0.250000  0.312500  0.000000     16.000000
 -0.062500  0.250000  0.000000     16.000000
  0.250000 -0.062500  0.000000     16.000000
 -0.062500 -0.312500  0.000000     16.000000
 -0.312500 -0.250000  0.000000     16.000000
  0.437500  0.062500  0.000000     16.000000
  0.375000  0.437500  0.000000     16.000000
 -0.062500  0.375000  0.000000     16.000000
  0.375000 -0.062500  0.000000     16.000000
 -0.062500 -0.437500  0.000000     16.000000
 -0.437500 -0.375000  0.000000     16.000000
 -0.437500  0.062500  0.000000     16.000000
  0.500000 -0.437500  0.000000     16.000000
 -0.062500  0.500000  0.000000     16.000000
  0.500000 -0.062500  0.000000     16.000000
 -0.062500  0.437500  0.000000     16.000000
  0.437500  0.500000  0.000000     16.000000
 -0.312500  0.062500  0.000000     16.000000
 -0.375000 -0.312500  0.000000     16.000000
 -0.062500 -0.375000  0.000000     16.000000
 -0.375000 -0.062500  0.000000     16.000000
 -0.062500  0.312500  0.000000     16.000000
  0.312500  0.375000  0.000000     16.000000
 -0.187500  0.062500  0.000000     16.000000
 -0.250000 -0.187500  0.000000     16.000000
 -0.062500 -0.250000  0.000000     16.000000
 -0.250000 -0.062500  0.000000     16.000000
 -0.062500  0.187500  0.000000     16.000000
  0.187500  0.250000  0.000000     16.000000
 -0.062500  0.062500  0.000000     16.000000
 -0.125000 -0.062500  0.000000     16.000000
 -0.062500 -0.125000  0.000000     16.000000
  0.187500  0.187500  0.000000     16.000000
  0.000000  0.187500  0.000000     16.000000
 -0.187500  0.000000  0.000000     16.000000
  0.312500  0.187500  0.000000     16.000000
  0.125000  0.312500  0.000000     16.000000
 -0.187500  0.125000  0.000000     16.000000
  0.125000 -0.187500  0.000000     16.000000
 -0.187500 -0.312500  0.000000     16.000000
 -0.312500 -0.125000  0.000000     16.000000
  0.437500  0.187500  0.000000     16.000000
  0.250000  0.437500  0.000000     16.000000
 -0.187500  0.250000  0.000000     16.000000
  0.250000 -0.187500  0.000000     16.000000
 -0.187500 -0.437500  0.000000     16.000000
 -0.437500 -0.250000  0.000000     16.000000
 -0.437500  0.187500  0.000000     16.000000
  0.375000 -0.437500  0.000000     16.000000
 -0.187500  0.375000  0.000000     16.000000
  0.375000 -0.187500  0.000000     16.000000
 -0.187500  0.437500  0.000000     16.000000
  0.437500 -0.375000  0.000000     16.000000
 -0.312500  0.187500  0.000000     16.000000
  0.500000 -0.312500  0.000000     16.000000
 -0.187500  0.500000  0.000000     16.000000
  0.500000 -0.187500  0.000000     16.000000
 -0.187500  0.312500  0.000000     16.000000
  0.312500  0.500000  0.000000     16.000000
 -0.187500  0.187500  0.000000     16.000000
 -0.375000 -0.187500  0.000000     16.000000
 -0.187500 -0.375000  0.000000     16.000000
  0.312500  0.312500  0.000000     16.000000
  0.000000  0.312500  0.000000     16.000000
 -0.312500  0.000000  0.000000     16.000000
  0.437500  0.312500  0.000000     16.000000
  0.125000  0.437500  0.000000     16.000000
 -0.312500  0.125000  0.000000     16.000000
  0.125000 -0.312500  0.000000     16.000000
 -0.312500 -0.437500  0.000000     16.000000
 -0.437500 -0.125000  0.000000     16.000000
 -0.437500  0.312500  0.000000     16.000000
  0.250000 -0.437500  0.000000     16.000000
 -0.312500  0.250000  0.000000     16.000000
  0.250000 -0.312500  0.000000     16.000000
 -0.312500  0.437500  0.000000     16.000000
  0.437500 -0.250000  0.000000     16.000000
 -0.312500  0.312500  0.000000     16.000000
  0.375000 -0.312500  0.000000     16.000000
 -0.312500  0.375000  0.000000     16.000000
  0.437500  0.437500  0.000000     16.000000
  0.000000  0.437500  0.000000     16.000000
 -0.437500 -0.000000  0.000000     16.000000
 -0.437500  0.437500  0.000000     16.000000
  0.125000 -0.437500  0.000000     16.000000
 -0.437500  0.125000  0.000000     16.000000
 
 Following cartesian coordinates:
            Coordinates               Weight
  0.011245  0.006492  0.000000     16.000000
  0.000000  0.012985  0.000000     16.000000
 -0.011245  0.006492  0.000000     16.000000
  0.033736 -0.006492  0.000000     16.000000
  0.022491  0.025970  0.000000     16.000000
 -0.011245  0.032462  0.000000     16.000000
  0.022491 -0.025970  0.000000     16.000000
 -0.011245 -0.032462  0.000000     16.000000
 -0.033736 -0.006492  0.000000     16.000000
  0.056227 -0.019477  0.000000     16.000000
  0.044981  0.038955  0.000000     16.000000
 -0.011245  0.058432  0.000000     16.000000
  0.044981 -0.038955  0.000000     16.000000
 -0.011245 -0.058432  0.000000     16.000000
 -0.056227 -0.019477  0.000000     16.000000
  0.078717 -0.032462  0.000000     16.000000
  0.067472  0.051940  0.000000     16.000000
 -0.011245  0.084402  0.000000     16.000000
  0.067472 -0.051940  0.000000     16.000000
 -0.011245 -0.084402  0.000000     16.000000
 -0.078717 -0.032462  0.000000     16.000000
 -0.078717  0.058432  0.000000     16.000000
  0.089963 -0.142835  0.000000     16.000000
 -0.011245  0.110372  0.000000     16.000000
  0.089963 -0.064925  0.000000     16.000000
 -0.011245  0.097387  0.000000     16.000000
  0.078717  0.058432  0.000000     16.000000
 -0.056227  0.045447  0.000000     16.000000
 -0.067472 -0.025970  0.000000     16.000000
 -0.011245 -0.071417  0.000000     16.000000
 -0.067472  0.025970  0.000000     16.000000
 -0.011245  0.071417  0.000000     16.000000
  0.056227  0.045447  0.000000     16.000000
 -0.033736  0.032462  0.000000     16.000000
 -0.044981 -0.012985  0.000000     16.000000
 -0.011245 -0.045447  0.000000     16.000000
 -0.044981  0.012985  0.000000     16.000000
 -0.011245  0.045447  0.000000     16.000000
  0.033736  0.032462  0.000000     16.000000
 -0.011245  0.019477  0.000000     16.000000
 -0.022491  0.000000  0.000000     16.000000
 -0.011245 -0.019477  0.000000     16.000000
  0.033736  0.019477  0.000000     16.000000
  0.000000  0.038955  0.000000     16.000000
 -0.033736  0.019477  0.000000     16.000000
  0.056227  0.006492  0.000000     16.000000
  0.022491  0.051940  0.000000     16.000000
 -0.033736  0.045447  0.000000     16.000000
  0.022491 -0.051940  0.000000     16.000000
 -0.033736 -0.045447  0.000000     16.000000
 -0.056227  0.006492  0.000000     16.000000
  0.078717 -0.006492  0.000000     16.000000
  0.044981  0.064925  0.000000     16.000000
 -0.033736  0.071417  0.000000     16.000000
  0.044981 -0.064925  0.000000     16.000000
 -0.033736 -0.071417  0.000000     16.000000
 -0.078717 -0.006492  0.000000     16.000000
 -0.078717  0.084402  0.000000     16.000000
  0.067472 -0.129850  0.000000     16.000000
 -0.033736  0.097387  0.000000     16.000000
  0.067472 -0.077910  0.000000     16.000000
 -0.033736  0.110372  0.000000     16.000000
  0.078717 -0.123357  0.000000     16.000000
 -0.056227  0.071417  0.000000     16.000000
  0.089963 -0.116865  0.000000     16.000000
 -0.033736  0.123357  0.000000     16.000000
  0.089963 -0.090895  0.000000     16.000000
 -0.033736  0.084402  0.000000     16.000000
  0.056227  0.071417  0.000000     16.000000
 -0.033736  0.058432  0.000000     16.000000
 -0.067472  0.000000  0.000000     16.000000
 -0.033736 -0.058432  0.000000     16.000000
  0.056227  0.032462  0.000000     16.000000
  0.000000  0.064925  0.000000     16.000000
 -0.056227  0.032462  0.000000     16.000000
  0.078717  0.019477  0.000000     16.000000
  0.022491  0.077910  0.000000     16.000000
 -0.056227  0.058432  0.000000     16.000000
  0.022491 -0.077910  0.000000     16.000000
 -0.056227 -0.058432  0.000000     16.000000
 -0.078717  0.019477  0.000000     16.000000
 -0.078717  0.110372  0.000000     16.000000
  0.044981 -0.116865  0.000000     16.000000
 -0.056227  0.084402  0.000000     16.000000
  0.044981 -0.090895  0.000000     16.000000
 -0.056227  0.123357  0.000000     16.000000
  0.078717 -0.097387  0.000000     16.000000
 -0.056227  0.097387  0.000000     16.000000
  0.067472 -0.103880  0.000000     16.000000
 -0.056227  0.110372  0.000000     16.000000
  0.078717  0.045447  0.000000     16.000000
  0.000000  0.090895  0.000000     16.000000
 -0.078717  0.045447  0.000000     16.000000
 -0.078717  0.136342  0.000000     16.000000
  0.022491 -0.103880  0.000000     16.000000
 -0.078717  0.071417  0.000000     16.000000
 


--------------------------------------------------------------------------------------------------------




 Dimension of arrays:
   k-points           NKPTS =     96   k-points in BZ     NKDIM =     96   number of bands    NBANDS=    100
   number of dos      NEDOS =    301   number of ions     NIONS =     21
   non local maximal  LDIM  =      6   non local SUM 2l+1 LMDIM =     18
   total plane-waves  NPLWV = 112896
   max r-space proj   IRMAX =   2252   max aug-charges    IRDMAX=  10104
   dimension x,y,z NGX =    28 NGY =   28 NGZ =  144
   dimension x,y,z NGXF=    56 NGYF=   56 NGZF=  288
   support grid    NGXF=    56 NGYF=   56 NGZF=  288
   ions per type =               1   1   4   1  14
   NGX,Y,Z   is equivalent  to a cutoff of   8.38,  8.38,  7.77 a.u.
   NGXF,Y,Z  is equivalent  to a cutoff of  16.75, 16.75, 15.54 a.u.

 SYSTEM =  0.6.Ir1.Au9                             
 POSCAR =  Au  C  H Ir Pt                          

 Startparameter for this run:
   NWRITE =      2    write-flag & timer
   PREC   = normal    normal or accurate (medium, high low for compatibility)
   ISTART =      0    job   : 0-new  1-cont  2-samecut
   ICHARG =      2    charge: 1-file 2-atom 10-const
   ISPIN  =      1    spin polarized calculation?
   LNONCOLLINEAR =      F non collinear calculations
   LSORBIT =      F    spin-orbit coupling
   INIWAV =      1    electr: 0-lowe 1-rand  2-diag
   LASPH  =      F    aspherical Exc in radial PAW
   METAGGA=      F    non-selfconsistent MetaGGA calc.

 Electronic Relaxation 1
   ENCUT  =  350.0 eV  25.72 Ry    5.07 a.u.   8.48  8.48 46.99*2*pi/ulx,y,z
   ENINI  =  350.0     initial cutoff
   ENAUG  =  644.9 eV  augmentation charge cutoff
   NELM   =   1000;   NELMIN=  5; NELMDL= -5     # of ELM steps 
   EDIFF  = 0.1E-04   stopping-criterion for ELM
   LREAL  =      T    real-space projection
   NLSPLINE    = F    spline interpolate recip. space projectors
   LCOMPAT=      F    compatible to vasp.4.4
   GGA_COMPAT  = T    GGA compatible to vasp.4.4-vasp.4.6
   LMAXPAW     = -100 max onsite density
   LMAXMIX     =    2 max onsite mixed and CHGCAR
   VOSKOWN=      0    Vosko Wilk Nusair interpolation
   ROPT   =   -0.00050  -0.00050  -0.00050  -0.00050
   ROPT   =   -0.00050
 Ionic relaxation
   EDIFFG = 0.1E-03   stopping-criterion for IOM
   NSW    =      0    number of steps for IOM
   NBLOCK =      1;   KBLOCK =      1    inner block; outer block 
   IBRION =     -1    ionic relax: 0-MD 1-quasi-New 2-CG
   NFREE  =      0    steps in history (QN), initial steepest desc. (CG)
   ISIF   =      2    stress and relaxation
   IWAVPR =     10    prediction:  0-non 1-charg 2-wave 3-comb
   ISYM   =      2    0-nonsym 1-usesym 2-fastsym
   LCORR  =      T    Harris-Foulkes like correction to forces

   POTIM  = 0.5000    time-step for ionic-motion
   TEIN   =    0.0    initial temperature
   TEBEG  =    0.0;   TEEND  =   0.0 temperature during run
   SMASS  =  -3.00    Nose mass-parameter (am)
   estimated Nose-frequenzy (Omega)   =  0.10E-29 period in steps =****** mass=  -0.706E-27a.u.
   SCALEE = 1.0000    scale energy and forces
   NPACO  =    256;   APACO  = 16.0  distance and # of slots for P.C.
   PSTRESS=    0.0 pullay stress

  Mass of Ions in am
   POMASS = 196.97 12.01  1.00192.22195.08
  Ionic Valenz
   ZVAL   =  11.00  4.00  1.00  9.00 10.00
  Atomic Wigner-Seitz radii
   RWIGS  =  -1.00 -1.00 -1.00 -1.00 -1.00
  virtual crystal weights 
   VCA    =   1.00  1.00  1.00  1.00  1.00
   NELECT =     168.0000    total number of electrons
   NUPDOWN=      -1.0000    fix difference up-down

 DOS related values:
   EMIN   =  10.00;   EMAX   =-10.00  energy-range for DOS
   EFERMI =   0.00
   ISMEAR =     1;   SIGMA  =   0.20  broadening in eV -4-tet -1-fermi 0-gaus

 Electronic relaxation 2 (details)
   IALGO  =     38    algorithm
   LDIAG  =      T    sub-space diagonalisation (order eigenvalues)
   LSUBROT=      F    optimize rotation matrix (better conditioning)
   TURBO    =      0    0=normal 1=particle mesh
   IRESTART =      0    0=no restart 2=restart with 2 vectors
   NREBOOT  =      0    no. of reboots
   NMIN     =      0    reboot dimension
   EREF     =   0.00    reference energy to select bands
   IMIX   =      4    mixing-type and parameters
     AMIX     =   0.40;   BMIX     =  1.00
     AMIX_MAG =   1.60;   BMIX_MAG =  1.00
     AMIN     =   0.10
     WC   =   100.;   INIMIX=   1;  MIXPRE=   1;  MAXMIX= -45

 Intra band minimization:
   WEIMIN = 0.0000     energy-eigenvalue tresh-hold
   EBREAK =  0.25E-07  absolut break condition
   DEPER  =   0.30     relativ break condition  

   TIME   =   0.40     timestep for ELM

  volume/ion in A,a.u.               =      39.24       264.83
  Fermi-wavevector in a.u.,A,eV,Ry     =   0.963488  1.820729 12.630418  0.928310
  Thomas-Fermi vector in A             =   2.093038
 
 Write flags
   LWAVE        =      F    write WAVECAR
   LDOWNSAMPLE  =      F    k-point downsampling of WAVECAR
   LCHARG       =      F    write CHGCAR
   LVTOT        =      F    write LOCPOT, total local potential
   LVHAR        =      F    write LOCPOT, Hartree potential only
   LELF         =      F    write electronic localiz. function (ELF)
   LORBIT       =      0    0 simple, 1 ext, 2 COOP (PROOUT), +10 PAW based schemes


 Dipole corrections
   LMONO  =      F    monopole corrections only (constant potential shift)
   LDIPOL =      F    correct potential (dipole corrections)
   IDIPOL =      3    1-x, 2-y, 3-z, 4-all directions 
   EPSILON=  1.0000000 bulk dielectric constant

 Exchange correlation treatment:
   GGA     =    --    GGA type
   LEXCH   =     8    internal setting for exchange type
   VOSKOWN=      0    Vosko Wilk Nusair interpolation
   LHFCALC =     F    Hartree Fock is set to
   LHFONE  =     F    Hartree Fock one center treatment
   AEXX    =    0.0000 exact exchange contribution

 Linear response parameters
   LEPSILON=     F    determine dielectric tensor
   LRPA    =     F    only Hartree local field effects (RPA)
   LNABLA  =     F    use nabla operator in PAW spheres
   LVEL    =     F    velocity operator in full k-point grid
   LINTERFAST=   F  fast interpolation
   KINTER  =     0    interpolate to denser k-point grid
   CSHIFT  =0.1000    complex shift for real part using Kramers Kronig
   OMEGAMAX=  -1.0    maximum frequency
   DEG_THRESHOLD= 0.2000000E-02 threshold for treating states as degnerate
   RTIME   =   -0.100 relaxation time in fs
  (WPLASMAI=    0.000 imaginary part of plasma frequency in eV, 0.658/RTIME)
   DFIELD  = 0.0000000 0.0000000 0.0000000 field for delta impulse in time
 
 Orbital magnetization related:
   ORBITALMAG=     F  switch on orbital magnetization
   LCHIMAG   =     F  perturbation theory with respect to B field
   DQ        =  0.001000  dq finite difference perturbation B field
   LLRAUG    =     F  two centre corrections for induced B field



--------------------------------------------------------------------------------------------------------


 Static calculation
 charge density and potential will be updated during run
 non-spin polarized calculation
 Variant of blocked Davidson
 Davidson routine will perform the subspace rotation
 perform sub-space diagonalisation
    after iterative eigenvector-optimisation
 modified Broyden-mixing scheme, WC =      100.0
 initial mixing is a Kerker type mixing with AMIX =  0.4000 and BMIX =      1.0000
 Hartree-type preconditioning will be used
 using additional bands           16
 real space projection scheme for non local part
 use partial core corrections
 calculate Harris-corrections to forces 
   (improved forces if not selfconsistent)
 use gradient corrections 
 use of overlap-Matrix (Vanderbilt PP)
 Methfessel and Paxton  Order N= 1 SIGMA  =   0.20


--------------------------------------------------------------------------------------------------------


  energy-cutoff  :      350.00
  volume of cell :      824.13
      direct lattice vectors                 reciprocal lattice vectors
     5.557859300  0.000000000  0.000000000     0.179925390 -0.103879972  0.000000000
     2.778929650  4.813247345  0.000000000     0.000000000  0.207759944  0.000000000
     0.000000000  0.000000000 30.806959674     0.000000000  0.000000000  0.032460198

  length of vectors
     5.557859300  5.557859300 30.806959674     0.207759944  0.207759944  0.032460198


 
 k-points in units of 2pi/SCALE and weight: 0.6.Ir1.Au9                             
   0.01124534  0.00649250  0.00000000       0.010
   0.00000000  0.01298500  0.00000000       0.010
  -0.01124534  0.00649250  0.00000000       0.010
   0.03373601 -0.00649250  0.00000000       0.010
   0.02249067  0.02596999  0.00000000       0.010
  -0.01124534  0.03246249  0.00000000       0.010
   0.02249067 -0.02596999  0.00000000       0.010
  -0.01124534 -0.03246249  0.00000000       0.010
  -0.03373601 -0.00649250  0.00000000       0.010
   0.05622668 -0.01947749  0.00000000       0.010
   0.04498135  0.03895499  0.00000000       0.010
  -0.01124534  0.05843248  0.00000000       0.010
   0.04498135 -0.03895499  0.00000000       0.010
  -0.01124534 -0.05843248  0.00000000       0.010
  -0.05622668 -0.01947749  0.00000000       0.010
   0.07871736 -0.03246249  0.00000000       0.010
   0.06747202  0.05193999  0.00000000       0.010
  -0.01124534  0.08440248  0.00000000       0.010
   0.06747202 -0.05193999  0.00000000       0.010
  -0.01124534 -0.08440248  0.00000000       0.010
  -0.07871736 -0.03246249  0.00000000       0.010
  -0.07871736  0.05843248  0.00000000       0.010
   0.08996269 -0.14283496  0.00000000       0.010
  -0.01124534  0.11037247  0.00000000       0.010
   0.08996269 -0.06492498  0.00000000       0.010
  -0.01124534  0.09738747  0.00000000       0.010
   0.07871736  0.05843248  0.00000000       0.010
  -0.05622668  0.04544749  0.00000000       0.010
  -0.06747202 -0.02596999  0.00000000       0.010
  -0.01124534 -0.07141748  0.00000000       0.010
  -0.06747202  0.02596999  0.00000000       0.010
  -0.01124534  0.07141748  0.00000000       0.010
   0.05622668  0.04544749  0.00000000       0.010
  -0.03373601  0.03246249  0.00000000       0.010
  -0.04498135 -0.01298500  0.00000000       0.010
  -0.01124534 -0.04544749  0.00000000       0.010
  -0.04498135  0.01298500  0.00000000       0.010
  -0.01124534  0.04544749  0.00000000       0.010
   0.03373601  0.03246249  0.00000000       0.010
  -0.01124534  0.01947749  0.00000000       0.010
  -0.02249067  0.00000000  0.00000000       0.010
  -0.01124534 -0.01947749  0.00000000       0.010
   0.03373601  0.01947749  0.00000000       0.010
   0.00000000  0.03895499  0.00000000       0.010
  -0.03373601  0.01947749  0.00000000       0.010
   0.05622668  0.00649250  0.00000000       0.010
   0.02249067  0.05193999  0.00000000       0.010
  -0.03373601  0.04544749  0.00000000       0.010
   0.02249067 -0.05193999  0.00000000       0.010
  -0.03373601 -0.04544749  0.00000000       0.010
  -0.05622668  0.00649250  0.00000000       0.010
   0.07871736 -0.00649250  0.00000000       0.010
   0.04498135  0.06492498  0.00000000       0.010
  -0.03373601  0.07141748  0.00000000       0.010
   0.04498135 -0.06492498  0.00000000       0.010
  -0.03373601 -0.07141748  0.00000000       0.010
  -0.07871736 -0.00649250  0.00000000       0.010
  -0.07871736  0.08440248  0.00000000       0.010
   0.06747202 -0.12984997  0.00000000       0.010
  -0.03373601  0.09738747  0.00000000       0.010
   0.06747202 -0.07790998  0.00000000       0.010
  -0.03373601  0.11037247  0.00000000       0.010
   0.07871736 -0.12335747  0.00000000       0.010
  -0.05622668  0.07141748  0.00000000       0.010
   0.08996269 -0.11686497  0.00000000       0.010
  -0.03373601  0.12335747  0.00000000       0.010
   0.08996269 -0.09089498  0.00000000       0.010
  -0.03373601  0.08440248  0.00000000       0.010
   0.05622668  0.07141748  0.00000000       0.010
  -0.03373601  0.05843248  0.00000000       0.010
  -0.06747202  0.00000000  0.00000000       0.010
  -0.03373601 -0.05843248  0.00000000       0.010
   0.05622668  0.03246249  0.00000000       0.010
   0.00000000  0.06492498  0.00000000       0.010
  -0.05622668  0.03246249  0.00000000       0.010
   0.07871736  0.01947749  0.00000000       0.010
   0.02249067  0.07790998  0.00000000       0.010
  -0.05622668  0.05843248  0.00000000       0.010
   0.02249067 -0.07790998  0.00000000       0.010
  -0.05622668 -0.05843248  0.00000000       0.010
  -0.07871736  0.01947749  0.00000000       0.010
  -0.07871736  0.11037247  0.00000000       0.010
   0.04498135 -0.11686497  0.00000000       0.010
  -0.05622668  0.08440248  0.00000000       0.010
   0.04498135 -0.09089498  0.00000000       0.010
  -0.05622668  0.12335747  0.00000000       0.010
   0.07871736 -0.09738747  0.00000000       0.010
  -0.05622668  0.09738747  0.00000000       0.010
   0.06747202 -0.10387997  0.00000000       0.010
  -0.05622668  0.11037247  0.00000000       0.010
   0.07871736  0.04544749  0.00000000       0.010
   0.00000000  0.09089498  0.00000000       0.010
  -0.07871736  0.04544749  0.00000000       0.010
  -0.07871736  0.13634246  0.00000000       0.010
   0.02249067 -0.10387997  0.00000000       0.010
  -0.07871736  0.07141748  0.00000000       0.010
 
 k-points in reciprocal lattice and weights: 0.6.Ir1.Au9                             
   0.06250000  0.06250000  0.00000000       0.010
   0.00000000  0.06250000  0.00000000       0.010
  -0.06250000  0.00000000  0.00000000       0.010
   0.18750000  0.06250000  0.00000000       0.010
   0.12500000  0.18750000  0.00000000       0.010
  -0.06250000  0.12500000  0.00000000       0.010
   0.12500000 -0.06250000  0.00000000       0.010
  -0.06250000 -0.18750000  0.00000000       0.010
  -0.18750000 -0.12500000  0.00000000       0.010
   0.31250000  0.06250000  0.00000000       0.010
   0.25000000  0.31250000  0.00000000       0.010
  -0.06250000  0.25000000  0.00000000       0.010
   0.25000000 -0.06250000  0.00000000       0.010
  -0.06250000 -0.31250000  0.00000000       0.010
  -0.31250000 -0.25000000  0.00000000       0.010
   0.43750000  0.06250000  0.00000000       0.010
   0.37500000  0.43750000  0.00000000       0.010
  -0.06250000  0.37500000  0.00000000       0.010
   0.37500000 -0.06250000  0.00000000       0.010
  -0.06250000 -0.43750000  0.00000000       0.010
  -0.43750000 -0.37500000  0.00000000       0.010
  -0.43750000  0.06250000  0.00000000       0.010
   0.50000000 -0.43750000  0.00000000       0.010
  -0.06250000  0.50000000  0.00000000       0.010
   0.50000000 -0.06250000  0.00000000       0.010
  -0.06250000  0.43750000  0.00000000       0.010
   0.43750000  0.50000000  0.00000000       0.010
  -0.31250000  0.06250000  0.00000000       0.010
  -0.37500000 -0.31250000  0.00000000       0.010
  -0.06250000 -0.37500000  0.00000000       0.010
  -0.37500000 -0.06250000  0.00000000       0.010
  -0.06250000  0.31250000  0.00000000       0.010
   0.31250000  0.37500000  0.00000000       0.010
  -0.18750000  0.06250000  0.00000000       0.010
  -0.25000000 -0.18750000  0.00000000       0.010
  -0.06250000 -0.25000000  0.00000000       0.010
  -0.25000000 -0.06250000  0.00000000       0.010
  -0.06250000  0.18750000  0.00000000       0.010
   0.18750000  0.25000000  0.00000000       0.010
  -0.06250000  0.06250000  0.00000000       0.010
  -0.12500000 -0.06250000  0.00000000       0.010
  -0.06250000 -0.12500000  0.00000000       0.010
   0.18750000  0.18750000  0.00000000       0.010
   0.00000000  0.18750000  0.00000000       0.010
  -0.18750000  0.00000000  0.00000000       0.010
   0.31250000  0.18750000  0.00000000       0.010
   0.12500000  0.31250000  0.00000000       0.010
  -0.18750000  0.12500000  0.00000000       0.010
   0.12500000 -0.18750000  0.00000000       0.010
  -0.18750000 -0.31250000  0.00000000       0.010
  -0.31250000 -0.12500000  0.00000000       0.010
   0.43750000  0.18750000  0.00000000       0.010
   0.25000000  0.43750000  0.00000000       0.010
  -0.18750000  0.25000000  0.00000000       0.010
   0.25000000 -0.18750000  0.00000000       0.010
  -0.18750000 -0.43750000  0.00000000       0.010
  -0.43750000 -0.25000000  0.00000000       0.010
  -0.43750000  0.18750000  0.00000000       0.010
   0.37500000 -0.43750000  0.00000000       0.010
  -0.18750000  0.37500000  0.00000000       0.010
   0.37500000 -0.18750000  0.00000000       0.010
  -0.18750000  0.43750000  0.00000000       0.010
   0.43750000 -0.37500000  0.00000000       0.010
  -0.31250000  0.18750000  0.00000000       0.010
   0.50000000 -0.31250000  0.00000000       0.010
  -0.18750000  0.50000000  0.00000000       0.010
   0.50000000 -0.18750000  0.00000000       0.010
  -0.18750000  0.31250000  0.00000000       0.010
   0.31250000  0.50000000  0.00000000       0.010
  -0.18750000  0.18750000  0.00000000       0.010
  -0.37500000 -0.18750000  0.00000000       0.010
  -0.18750000 -0.37500000  0.00000000       0.010
   0.31250000  0.31250000  0.00000000       0.010
   0.00000000  0.31250000  0.00000000       0.010
  -0.31250000  0.00000000  0.00000000       0.010
   0.43750000  0.31250000  0.00000000       0.010
   0.12500000  0.43750000  0.00000000       0.010
  -0.31250000  0.12500000  0.00000000       0.010
   0.12500000 -0.31250000  0.00000000       0.010
  -0.31250000 -0.43750000  0.00000000       0.010
  -0.43750000 -0.12500000  0.00000000       0.010
  -0.43750000  0.31250000  0.00000000       0.010
   0.25000000 -0.43750000  0.00000000       0.010
  -0.31250000  0.25000000  0.00000000       0.010
   0.25000000 -0.31250000  0.00000000       0.010
  -0.31250000  0.43750000  0.00000000       0.010
   0.43750000 -0.25000000  0.00000000       0.010
  -0.31250000  0.31250000  0.00000000       0.010
   0.37500000 -0.31250000  0.00000000       0.010
  -0.31250000  0.37500000  0.00000000       0.010
   0.43750000  0.43750000  0.00000000       0.010
   0.00000000  0.43750000  0.00000000       0.010
  -0.43750000 -0.00000000  0.00000000       0.010
  -0.43750000  0.43750000  0.00000000       0.010
   0.12500000 -0.43750000  0.00000000       0.010
  -0.43750000  0.12500000  0.00000000       0.010
 
 position of ions in fractional coordinates (direct lattice) 
   0.33951203  0.33276924  0.54286896
   0.00435359  0.03761516  0.70475958
   0.01358312  0.15264794  0.67449012
   0.87885607  0.21517109  0.72606714
   0.90154056  0.91397787  0.70054276
   0.21876148  0.90758821  0.71591007
   0.50228507  0.00297804  0.39324954
   0.50439204  0.49657980  0.61752625
   0.00636926  0.49624208  0.61804719
   0.50612719  0.99566957  0.61780603
   0.00442941  0.99441915  0.61818172
   0.00231916  0.00325708  0.39312595
   0.83940859  0.33392762  0.54259022
   0.67133409  0.66979427  0.46871567
   0.17130286  0.66932446  0.46852214
   0.67119537  0.16955342  0.46844753
   0.17106828  0.16939492  0.46852282
   0.50224521  0.50335666  0.39304558
   0.00208030  0.50324642  0.39320135
   0.33893697  0.83393027  0.54270515
   0.84080393  0.83411951  0.54304265
 
 position of ions in cartesian coordinates  (Angst):
   2.81170243  1.60170067 16.72414227
   0.12872652  0.18105107 21.71150001
   0.49969093  0.73473229 20.77898987
   5.48250368  1.03567166 22.36792107
   7.55051578  4.39920155 21.58159247
   3.73796932  4.36844652 22.05501253
   2.79990550  0.01433403 12.11482266
   4.18330036  2.39016143 19.02410641
   1.41442128  2.38853588 19.04015501
   5.57987940  4.79240389 19.03272553
   2.78803892  4.78638533 19.04429922
   0.02194075  0.01567712 12.11101524
   5.59327619  1.60727624 16.71555509
   5.59249160  3.22388551 14.43970460
   2.81208280  3.22162419 14.43374277
   4.20158647  0.81610256 14.43144409
   1.42151002  0.81533965 14.43376372
   4.19020096  2.42278009 12.10853922
   1.41004843  2.42224950 12.11333801
   4.20119757  4.01391267 16.71909572
   6.99102940  4.01482353 16.72949293
 


--------------------------------------------------------------------------------------------------------


 k-point  1 :   0.0625 0.0625 0.0000  plane waves:   12325
 k-point  2 :   0.0000 0.0625 0.0000  plane waves:   12325
 k-point  3 :  -0.0625 0.0000 0.0000  plane waves:   12325
 k-point  4 :   0.1875 0.0625 0.0000  plane waves:   12294
 k-point  5 :   0.1250 0.1875 0.0000  plane waves:   12294
 k-point  6 :  -0.0625 0.1250 0.0000  plane waves:   12294
 k-point  7 :   0.1250-0.0625 0.0000  plane waves:   12294
 k-point  8 :  -0.0625-0.1875 0.0000  plane waves:   12294
 k-point  9 :  -0.1875-0.1250 0.0000  plane waves:   12294
 k-point 10 :   0.3125 0.0625 0.0000  plane waves:   12263
 k-point 11 :   0.2500 0.3125 0.0000  plane waves:   12263
 k-point 12 :  -0.0625 0.2500 0.0000  plane waves:   12263
 k-point 13 :   0.2500-0.0625 0.0000  plane waves:   12263
 k-point 14 :  -0.0625-0.3125 0.0000  plane waves:   12263
 k-point 15 :  -0.3125-0.2500 0.0000  plane waves:   12263
 k-point 16 :   0.4375 0.0625 0.0000  plane waves:   12221
 k-point 17 :   0.3750 0.4375 0.0000  plane waves:   12221
 k-point 18 :  -0.0625 0.3750 0.0000  plane waves:   12221
 k-point 19 :   0.3750-0.0625 0.0000  plane waves:   12221
 k-point 20 :  -0.0625-0.4375 0.0000  plane waves:   12221
 k-point 21 :  -0.4375-0.3750 0.0000  plane waves:   12221
 k-point 22 :  -0.4375 0.0625 0.0000  plane waves:   12211
 k-point 23 :   0.5000-0.4375 0.0000  plane waves:   12211
 k-point 24 :  -0.0625 0.5000 0.0000  plane waves:   12211
 k-point 25 :   0.5000-0.0625 0.0000  plane waves:   12211
 k-point 26 :  -0.0625 0.4375 0.0000  plane waves:   12211
 k-point 27 :   0.4375 0.5000 0.0000  plane waves:   12211
 k-point 28 :  -0.3125 0.0625 0.0000  plane waves:   12242
 k-point 29 :  -0.3750-0.3125 0.0000  plane waves:   12242
 k-point 30 :  -0.0625-0.3750 0.0000  plane waves:   12242
 k-point 31 :  -0.3750-0.0625 0.0000  plane waves:   12242
 k-point 32 :  -0.0625 0.3125 0.0000  plane waves:   12242
 k-point 33 :   0.3125 0.3750 0.0000  plane waves:   12242
 k-point 34 :  -0.1875 0.0625 0.0000  plane waves:   12280
 k-point 35 :  -0.2500-0.1875 0.0000  plane waves:   12280
 k-point 36 :  -0.0625-0.2500 0.0000  plane waves:   12280
 k-point 37 :  -0.2500-0.0625 0.0000  plane waves:   12280
 k-point 38 :  -0.0625 0.1875 0.0000  plane waves:   12280
 k-point 39 :   0.1875 0.2500 0.0000  plane waves:   12280
 k-point 40 :  -0.0625 0.0625 0.0000  plane waves:   12329
 k-point 41 :  -0.1250-0.0625 0.0000  plane waves:   12329
 k-point 42 :  -0.0625-0.1250 0.0000  plane waves:   12329
 k-point 43 :   0.1875 0.1875 0.0000  plane waves:   12277
 k-point 44 :   0.0000 0.1875 0.0000  plane waves:   12277
 k-point 45 :  -0.1875 0.0000 0.0000  plane waves:   12277
 k-point 46 :   0.3125 0.1875 0.0000  plane waves:   12288
 k-point 47 :   0.1250 0.3125 0.0000  plane waves:   12288
 k-point 48 :  -0.1875 0.1250 0.0000  plane waves:   12288
 k-point 49 :   0.1250-0.1875 0.0000  plane waves:   12288
 k-point 50 :  -0.1875-0.3125 0.0000  plane waves:   12288
 k-point 51 :  -0.3125-0.1250 0.0000  plane waves:   12288
 k-point 52 :   0.4375 0.1875 0.0000  plane waves:   12234
 k-point 53 :   0.2500 0.4375 0.0000  plane waves:   12234
 k-point 54 :  -0.1875 0.2500 0.0000  plane waves:   12234
 k-point 55 :   0.2500-0.1875 0.0000  plane waves:   12234
 k-point 56 :  -0.1875-0.4375 0.0000  plane waves:   12234
 k-point 57 :  -0.4375-0.2500 0.0000  plane waves:   12234
 k-point 58 :  -0.4375 0.1875 0.0000  plane waves:   12216
 k-point 59 :   0.3750-0.4375 0.0000  plane waves:   12216
 k-point 60 :  -0.1875 0.3750 0.0000  plane waves:   12216
 k-point 61 :   0.3750-0.1875 0.0000  plane waves:   12216
 k-point 62 :  -0.1875 0.4375 0.0000  plane waves:   12216
 k-point 63 :   0.4375-0.3750 0.0000  plane waves:   12216
 k-point 64 :  -0.3125 0.1875 0.0000  plane waves:   12215
 k-point 65 :   0.5000-0.3125 0.0000  plane waves:   12215
 k-point 66 :  -0.1875 0.5000 0.0000  plane waves:   12215
 k-point 67 :   0.5000-0.1875 0.0000  plane waves:   12215
 k-point 68 :  -0.1875 0.3125 0.0000  plane waves:   12215
 k-point 69 :   0.3125 0.5000 0.0000  plane waves:   12215
 k-point 70 :  -0.1875 0.1875 0.0000  plane waves:   12289
 k-point 71 :  -0.3750-0.1875 0.0000  plane waves:   12289
 k-point 72 :  -0.1875-0.3750 0.0000  plane waves:   12289
 k-point 73 :   0.3125 0.3125 0.0000  plane waves:   12275
 k-point 74 :   0.0000 0.3125 0.0000  plane waves:   12275
 k-point 75 :  -0.3125 0.0000 0.0000  plane waves:   12275
 k-point 76 :   0.4375 0.3125 0.0000  plane waves:   12239
 k-point 77 :   0.1250 0.4375 0.0000  plane waves:   12239
 k-point 78 :  -0.3125 0.1250 0.0000  plane waves:   12239
 k-point 79 :   0.1250-0.3125 0.0000  plane waves:   12239
 k-point 80 :  -0.3125-0.4375 0.0000  plane waves:   12239
 k-point 81 :  -0.4375-0.1250 0.0000  plane waves:   12239
 k-point 82 :  -0.4375 0.3125 0.0000  plane waves:   12235
 k-point 83 :   0.2500-0.4375 0.0000  plane waves:   12235
 k-point 84 :  -0.3125 0.2500 0.0000  plane waves:   12235
 k-point 85 :   0.2500-0.3125 0.0000  plane waves:   12235
 k-point 86 :  -0.3125 0.4375 0.0000  plane waves:   12235
 k-point 87 :   0.4375-0.2500 0.0000  plane waves:   12235
 k-point 88 :  -0.3125 0.3125 0.0000  plane waves:   12232
 k-point 89 :   0.3750-0.3125 0.0000  plane waves:   12232
 k-point 90 :  -0.3125 0.3750 0.0000  plane waves:   12232
 k-point 91 :   0.4375 0.4375 0.0000  plane waves:   12200
 k-point 92 :   0.0000 0.4375 0.0000  plane waves:   12200
 k-point 93 :  -0.4375-0.0000 0.0000  plane waves:   12200
 k-point 94 :  -0.4375 0.4375 0.0000  plane waves:   12214
 k-point 95 :   0.1250-0.4375 0.0000  plane waves:   12214
 k-point 96 :  -0.4375 0.1250 0.0000  plane waves:   12214

 maximum and minimum number of plane-waves per node :      3101     2992

 maximum number of plane-waves:     12329
 maximum index in each direction: 
   IXMAX=    8   IYMAX=    8   IZMAX=   46
   IXMIN=   -8   IYMIN=   -8   IZMIN=  -46


 real space projection operators:
  total allocation   :       5095.41 KBytes
  max/ min on nodes  :       1278.22       1270.16


 parallel 3D FFT for wavefunctions:
    minimum data exchange during FFTs selected (reduces bandwidth)
 parallel 3D FFT for charge:
    minimum data exchange during FFTs selected (reduces bandwidth)


 total amount of memory used by VASP MPI-rank0   164312. kBytes
=======================================================================

   base      :      30000. kBytes
   nonlr-proj:       2359. kBytes
   fftplans  :       2967. kBytes
   grid      :       6321. kBytes
   one-center:         93. kBytes
   wavefun   :     122572. kBytes
 
     INWAV:  cpu time    0.0000: real time    0.0002
 Broyden mixing: mesh for mixing (old mesh)
   NGX = 17   NGY = 17   NGZ = 93
  (NGX  = 56   NGY  = 56   NGZ  =288)
  gives a total of  26877 points

 initial charge density was supplied:
 charge density of overlapping atoms calculated
 number of electron     168.0000000 magnetization 
 keeping initial charge density in first step


--------------------------------------------------------------------------------------------------------


 Maximum index for non-local projection operator          543
 Maximum index for augmentation-charges          717 (set IRDMAX)


--------------------------------------------------------------------------------------------------------


 First call to EWALD:  gamma=   0.189
 Maximum number of real-space cells 5x 5x 1
 Maximum number of reciprocal cells 2x 2x 8

    FEWALD:  cpu time    0.0014: real time    0.0014


--------------------------------------- Iteration      1(   1)  ---------------------------------------


    POTLOK:  cpu time    0.0262: real time    0.0407
    SETDIJ:  cpu time    0.0035: real time    0.0035
     EDDAV:  cpu time   14.2685: real time   14.2736
       DOS:  cpu time    0.0075: real time    0.0075
    --------------------------------------------
      LOOP:  cpu time   14.3058: real time   14.3253

 eigenvalue-minimisations  : 19288
 total energy-change (2. order) : 0.1029411E+04  (-0.5831876E+04)
 number of electron     168.0000000 magnetization 
 augmentation part      168.0000000 magnetization 

 Free energy of the ion-electron system (eV)
  ---------------------------------------------------
  alpha Z        PSCENC =       324.87461712
  Ewald energy   TEWEN  =    101580.42134579
  -Hartree energ DENC   =   -113865.31757213
  -exchange      EXHF   =         0.00000000
  -V(xc)+E(xc)   XCENC  =        69.38022211
  PAW double counting   =     11288.27476651   -10829.50941267
  entropy T*S    EENTRO =        -0.00536822
  eigenvalues    EBANDS =       570.65462039
  atomic energy  EATOM  =     11890.63736546
  Solvation  Ediel_sol  =         0.00000000
  ---------------------------------------------------
  free energy    TOTEN  =      1029.41058437 eV

  energy without entropy =     1029.41595258  energy(sigma->0) =     1029.41237377


--------------------------------------------------------------------------------------------------------




--------------------------------------- Iteration      1(   2)  ---------------------------------------


     EDDAV:  cpu time   16.8181: real time   16.8225
       DOS:  cpu time    0.0084: real time    0.0084
    --------------------------------------------
      LOOP:  cpu time   16.8265: real time   16.8308

 eigenvalue-minimisations  : 23888
 total energy-change (2. order) :-0.1057578E+04  (-0.9820704E+03)
 number of electron     168.0000000 magnetization 
 augmentation part      168.0000000 magnetization 

 Free energy of the ion-electron system (eV)
  ---------------------------------------------------
  alpha Z        PSCENC =       324.87461712
  Ewald energy   TEWEN  =    101580.42134579
  -Hartree energ DENC   =   -113865.31757213
  -exchange      EXHF   =         0.00000000
  -V(xc)+E(xc)   XCENC  =        69.38022211
  PAW double counting   =     11288.27476651   -10829.50941267
  entropy T*S    EENTRO =         0.00762038
  eigenvalues    EBANDS =      -486.93592706
  atomic energy  EATOM  =     11890.63736546
  Solvation  Ediel_sol  =         0.00000000
  ---------------------------------------------------
  free energy    TOTEN  =       -28.16697448 eV

  energy without entropy =      -28.17459486  energy(sigma->0) =      -28.16951461


--------------------------------------------------------------------------------------------------------




--------------------------------------- Iteration      1(   3)  ---------------------------------------


     EDDAV:  cpu time   16.4082: real time   16.4141
       DOS:  cpu time    0.0089: real time    0.0089
    --------------------------------------------
      LOOP:  cpu time   16.4172: real time   16.4230

 eigenvalue-minimisations  : 23000
 total energy-change (2. order) :-0.9219651E+02  (-0.8522945E+02)
 number of electron     168.0000000 magnetization 
 augmentation part      168.0000000 magnetization 

 Free energy of the ion-electron system (eV)
  ---------------------------------------------------
  alpha Z        PSCENC =       324.87461712
  Ewald energy   TEWEN  =    101580.42134579
  -Hartree energ DENC   =   -113865.31757213
  -exchange      EXHF   =         0.00000000
  -V(xc)+E(xc)   XCENC  =        69.38022211
  PAW double counting   =     11288.27476651   -10829.50941267
  entropy T*S    EENTRO =        -0.00460982
  eigenvalues    EBANDS =      -579.12020572
  atomic energy  EATOM  =     11890.63736546
  Solvation  Ediel_sol  =         0.00000000
  ---------------------------------------------------
  free energy    TOTEN  =      -120.36348334 eV

  energy without entropy =     -120.35887352  energy(sigma->0) =     -120.36194674


--------------------------------------------------------------------------------------------------------




--------------------------------------- Iteration      1(   4)  ---------------------------------------


     EDDAV:  cpu time   17.8502: real time   17.8540
       DOS:  cpu time    0.0087: real time    0.0087
    --------------------------------------------
      LOOP:  cpu time   17.8589: real time   17.8627

 eigenvalue-minimisations  : 25720
 total energy-change (2. order) :-0.4453741E+01  (-0.4234235E+01)
 number of electron     168.0000000 magnetization 
 augmentation part      168.0000000 magnetization 

 Free energy of the ion-electron system (eV)
  ---------------------------------------------------
  alpha Z        PSCENC =       324.87461712
  Ewald energy   TEWEN  =    101580.42134579
  -Hartree energ DENC   =   -113865.31757213
  -exchange      EXHF   =         0.00000000
  -V(xc)+E(xc)   XCENC  =        69.38022211
  PAW double counting   =     11288.27476651   -10829.50941267
  entropy T*S    EENTRO =        -0.01007140
  eigenvalues    EBANDS =      -583.56848477
  atomic energy  EATOM  =     11890.63736546
  Solvation  Ediel_sol  =         0.00000000
  ---------------------------------------------------
  free energy    TOTEN  =      -124.81722398 eV

  energy without entropy =     -124.80715258  energy(sigma->0) =     -124.81386685


--------------------------------------------------------------------------------------------------------




--------------------------------------- Iteration      1(   5)  ---------------------------------------


     EDDAV:  cpu time   18.5733: real time   18.5849
       DOS:  cpu time    0.0089: real time    0.0089
    CHARGE:  cpu time    0.7301: real time    0.7302
    MIXING:  cpu time    0.0011: real time    0.0011
    --------------------------------------------
      LOOP:  cpu time   19.3134: real time   19.3251

 eigenvalue-minimisations  : 26844
 total energy-change (2. order) :-0.1408223E+00  (-0.1393783E+00)
 number of electron     168.0000065 magnetization 
 augmentation part       47.1057748 magnetization 

 Broyden mixing:
  rms(total) = 0.43139E+01    rms(broyden)= 0.43138E+01
  rms(prec ) = 0.43579E+01
  weight for this iteration     100.00

 Free energy of the ion-electron system (eV)
  ---------------------------------------------------
  alpha Z        PSCENC =       324.87461712
  Ewald energy   TEWEN  =    101580.42134579
  -Hartree energ DENC   =   -113865.31757213
  -exchange      EXHF   =         0.00000000
  -V(xc)+E(xc)   XCENC  =        69.38022211
  PAW double counting   =     11288.27476651   -10829.50941267
  entropy T*S    EENTRO =        -0.01035817
  eigenvalues    EBANDS =      -583.70902032
  atomic energy  EATOM  =     11890.63736546
  Solvation  Ediel_sol  =         0.00000000
  ---------------------------------------------------
  free energy    TOTEN  =      -124.95804629 eV

  energy without entropy =     -124.94768812  energy(sigma->0) =     -124.95459357


--------------------------------------------------------------------------------------------------------




--------------------------------------- Iteration      1(   6)  ---------------------------------------


    POTLOK:  cpu time    0.0240: real time    0.0245
    SETDIJ:  cpu time    0.0035: real time    0.0035
     EDDAV:  cpu time   16.5701: real time   16.5805
       DOS:  cpu time    0.0100: real time    0.0100
    CHARGE:  cpu time    0.7431: real time    0.7431
    MIXING:  cpu time    0.0011: real time    0.0011
    --------------------------------------------
      LOOP:  cpu time   17.3518: real time   17.3627

 eigenvalue-minimisations  : 23156
 total energy-change (2. order) : 0.5225505E+01  (-0.3465453E+01)
 number of electron     168.0000062 magnetization 
 augmentation part       49.8392178 magnetization 

 Broyden mixing:
  rms(total) = 0.35445E+01    rms(broyden)= 0.35444E+01
  rms(prec ) = 0.38934E+01
  weight for this iteration     100.00

 eigenvalues of (default mixing * dielectric matrix)
  average eigenvalue GAMMA=   0.9518
  0.9518

 Free energy of the ion-electron system (eV)
  ---------------------------------------------------
  alpha Z        PSCENC =       324.87461712
  Ewald energy   TEWEN  =    101580.42134579
  -Hartree energ DENC   =   -113662.74245470
  -exchange      EXHF   =         0.00000000
  -V(xc)+E(xc)   XCENC  =        66.31977639
  PAW double counting   =     12567.06677180   -12131.87214673
  entropy T*S    EENTRO =         0.01190993
  eigenvalues    EBANDS =      -754.44972662
  atomic energy  EATOM  =     11890.63736546
  Solvation  Ediel_sol  =         0.00000000
  ---------------------------------------------------
  free energy    TOTEN  =      -119.73254157 eV

  energy without entropy =     -119.74445150  energy(sigma->0) =     -119.73651155


--------------------------------------------------------------------------------------------------------




--------------------------------------- Iteration      1(   7)  ---------------------------------------


    POTLOK:  cpu time    0.0228: real time    0.0238
    SETDIJ:  cpu time    0.0035: real time    0.0035
     EDDAV:  cpu time   19.9151: real time   19.9240
       DOS:  cpu time    0.0090: real time    0.0090
    CHARGE:  cpu time    0.7314: real time    0.7314
    MIXING:  cpu time    0.0011: real time    0.0011
    --------------------------------------------
      LOOP:  cpu time   20.6829: real time   20.6927

 eigenvalue-minimisations  : 29164
 total energy-change (2. order) :-0.5305881E+02  (-0.2265216E+02)
 number of electron     168.0000064 magnetization 
 augmentation part       47.8185205 magnetization 

 Broyden mixing:
  rms(total) = 0.59282E+01    rms(broyden)= 0.59281E+01
  rms(prec ) = 0.75385E+01
  weight for this iteration     100.00

 eigenvalues of (default mixing * dielectric matrix)
  average eigenvalue GAMMA=   0.8654
  1.5752  0.1557

 Free energy of the ion-electron system (eV)
  ---------------------------------------------------
  alpha Z        PSCENC =       324.87461712
  Ewald energy   TEWEN  =    101580.42134579
  -Hartree energ DENC   =   -113756.86338938
  -exchange      EXHF   =         0.00000000
  -V(xc)+E(xc)   XCENC  =        65.86143533
  PAW double counting   =     13201.65711899   -12773.02392685
  entropy T*S    EENTRO =        -0.00976595
  eigenvalues    EBANDS =      -706.34615452
  atomic energy  EATOM  =     11890.63736546
  Solvation  Ediel_sol  =         0.00000000
  ---------------------------------------------------
  free energy    TOTEN  =      -172.79135400 eV

  energy without entropy =     -172.78158805  energy(sigma->0) =     -172.78809868


--------------------------------------------------------------------------------------------------------




--------------------------------------- Iteration      1(   8)  ---------------------------------------


    POTLOK:  cpu time    0.0237: real time    0.0242
    SETDIJ:  cpu time    0.0035: real time    0.0035
     EDDAV:  cpu time   19.0047: real time   19.0054
       DOS:  cpu time    0.0095: real time    0.0095
    CHARGE:  cpu time    0.7276: real time    0.7277
    MIXING:  cpu time    0.0011: real time    0.0011
    --------------------------------------------
      LOOP:  cpu time   19.7702: real time   19.7714

 eigenvalue-minimisations  : 27668
 total energy-change (2. order) : 0.2802572E+02  (-0.1018964E+02)
 number of electron     168.0000073 magnetization 
 augmentation part       49.2089471 magnetization 

 Broyden mixing:
  rms(total) = 0.45038E+01    rms(broyden)= 0.45036E+01
  rms(prec ) = 0.50444E+01
  weight for this iteration     100.00

 eigenvalues of (default mixing * dielectric matrix)
  average eigenvalue GAMMA=   0.8287
  2.0484  0.2189  0.2189

 Free energy of the ion-electron system (eV)
  ---------------------------------------------------
  alpha Z        PSCENC =       324.87461712
  Ewald energy   TEWEN  =    101580.42134579
  -Hartree energ DENC   =   -113825.68317658
  -exchange      EXHF   =         0.00000000
  -V(xc)+E(xc)   XCENC  =        65.21402253
  PAW double counting   =     14016.70848310   -13597.31048850
  entropy T*S    EENTRO =        -0.01084212
  eigenvalues    EBANDS =      -599.61695953
  atomic energy  EATOM  =     11890.63736546
  Solvation  Ediel_sol  =         0.00000000
[...]
     21      -5.1845      2.00000
     22      -5.1389      2.00000
     23      -4.9669      2.00000
     24      -4.9083      2.00000
     25      -4.7958      2.00000
     26      -4.7484      2.00000
     27      -4.6296      2.00000
     28      -4.5661      2.00000
     29      -4.5511      2.00000
     30      -4.5007      2.00000
     31      -4.4554      2.00000
     32      -4.4314      2.00000
     33      -4.1843      2.00000
     34      -4.0494      2.00000
     35      -4.0149      2.00000
     36      -3.9689      2.00000
     37      -3.8906      2.00000
     38      -3.8419      2.00000
     39      -3.7469      2.00000
     40      -3.7022      2.00000
     41      -3.6172      2.00000
     42      -3.5480      2.00000
     43      -3.4929      2.00000
     44      -3.4316      2.00000
     45      -3.3969      2.00000
     46      -3.2668      2.00000
     47      -3.2115      2.00000
     48      -3.1865      2.00000
     49      -3.1206      2.00000
     50      -3.0931      2.00000
     51      -3.0452      2.00000
     52      -3.0238      2.00000
     53      -2.9738      2.00000
     54      -2.8691      2.00000
     55      -2.7969      2.00000
     56      -2.7203      2.00000
     57      -2.6322      2.00000
     58      -2.4857      2.00000
     59      -2.3444      2.00000
     60      -2.3124      2.00000
     61      -2.2408      2.00000
     62      -2.1566      2.00000
     63      -2.1054      2.00000
     64      -2.0475      2.00000
     65      -1.8946      2.00000
     66      -1.8314      2.00000
     67      -1.7401      2.00000
     68      -1.7146      2.00000
     69      -1.5985      2.00000
     70      -1.5636      2.00000
     71      -1.4874      2.00000
     72      -1.4120      2.00000
     73      -1.3453      2.00000
     74      -1.2981      2.00000
     75      -1.2268      2.00000
     76      -1.1855      2.00000
     77      -1.1037      2.00000
     78      -0.9876      2.00000
     79      -0.8144      2.00032
     80      -0.7576      2.00136
     81      -0.6243      2.01875
     82      -0.5019      2.06755
     83      -0.4609      2.06794
     84      -0.4022      1.99876
     85      -0.3400      1.77024
     86      -0.1784      0.54589
     87      -0.1008      0.10384
     88      -0.0390     -0.04517
     89       0.1793     -0.01273
     90       0.3039     -0.00094
     91       0.7626     -0.00000
     92       1.1453     -0.00000
     93       2.0199     -0.00000
     94       2.1179     -0.00000
     95       2.3630     -0.00000
     96       2.8750     -0.00000
     97       3.7680     -0.00000
     98       3.9898     -0.00000
     99       4.4471     -0.00000
    100       4.5520     -0.00000

 k-point    96 :      -0.4375    0.1250    0.0000
  band No.  band energies     occupation 
      1     -13.2030      2.00000
      2      -7.8086      2.00000
      3      -7.7587      2.00000
      4      -6.9214      2.00000
      5      -6.7195      2.00000
      6      -6.3942      2.00000
      7      -6.3365      2.00000
      8      -6.0918      2.00000
      9      -6.0044      2.00000
     10      -5.8967      2.00000
     11      -5.8723      2.00000
     12      -5.7567      2.00000
     13      -5.7316      2.00000
     14      -5.7129      2.00000
     15      -5.6574      2.00000
     16      -5.5703      2.00000
     17      -5.5247      2.00000
     18      -5.3813      2.00000
     19      -5.2927      2.00000
     20      -5.2188      2.00000
     21      -5.1837      2.00000
     22      -5.1360      2.00000
     23      -4.9684      2.00000
     24      -4.9143      2.00000
     25      -4.7825      2.00000
     26      -4.7396      2.00000
     27      -4.6347      2.00000
     28      -4.5666      2.00000
     29      -4.5470      2.00000
     30      -4.5050      2.00000
     31      -4.4582      2.00000
     32      -4.4412      2.00000
     33      -4.1466      2.00000
     34      -4.0454      2.00000
     35      -4.0243      2.00000
     36      -3.9717      2.00000
     37      -3.9047      2.00000
     38      -3.8640      2.00000
     39      -3.7375      2.00000
     40      -3.7277      2.00000
     41      -3.5938      2.00000
     42      -3.5418      2.00000
     43      -3.5099      2.00000
     44      -3.4442      2.00000
     45      -3.3859      2.00000
     46      -3.2552      2.00000
     47      -3.2226      2.00000
     48      -3.1786      2.00000
     49      -3.1169      2.00000
     50      -3.1026      2.00000
     51      -3.0683      2.00000
     52      -3.0289      2.00000
     53      -2.9780      2.00000
     54      -2.8656      2.00000
     55      -2.8110      2.00000
     56      -2.7393      2.00000
     57      -2.6076      2.00000
     58      -2.5170      2.00000
     59      -2.3348      2.00000
     60      -2.3062      2.00000
     61      -2.2489      2.00000
     62      -2.1814      2.00000
     63      -2.0945      2.00000
     64      -2.0223      2.00000
     65      -1.8942      2.00000
     66      -1.8597      2.00000
     67      -1.7351      2.00000
     68      -1.6618      2.00000
     69      -1.6239      2.00000
     70      -1.5716      2.00000
     71      -1.5007      2.00000
     72      -1.4132      2.00000
     73      -1.3661      2.00000
     74      -1.3132      2.00000
     75      -1.2428      2.00000
     76      -1.1161      2.00000
     77      -1.0945      2.00000
     78      -0.9867      2.00000
     79      -0.8398      2.00016
     80      -0.6977      2.00505
     81      -0.6560      2.01111
     82      -0.5636      2.04190
     83      -0.4789      2.07091
     84      -0.3522      1.83025
     85      -0.3095      1.58856
     86      -0.1944      0.66911
     87      -0.1551      0.38378
     88       0.0211     -0.07012
     89       0.1588     -0.01782
     90       0.3393     -0.00038
     91       0.7558     -0.00000
     92       1.1473     -0.00000
     93       2.0098     -0.00000
     94       2.0820     -0.00000
     95       2.4324     -0.00000
     96       2.8722     -0.00000
     97       3.7576     -0.00000
     98       3.9696     -0.00000
     99       4.4498     -0.00000
    100       4.5340     -0.00000


--------------------------------------------------------------------------------------------------------


 soft charge-density along one line, spin component           1
         0         1         2         3         4         5         6         7         8         9
 total charge-density along one line
 
 pseudopotential strength for first ion, spin component:           1
 -7.873  -0.000  -0.001  -0.007  -0.000  -8.023  -0.000  -0.001
 -0.000  -7.854  -0.000   0.000  -0.008  -0.000  -8.005  -0.000
 -0.001  -0.000  -7.871  -0.000  -0.001  -0.001  -0.000  -8.022
 -0.007   0.000  -0.000  -7.856  -0.000  -0.007   0.000  -0.000
 -0.000  -0.008  -0.001  -0.000  -7.872  -0.000  -0.008  -0.001
 -8.023  -0.000  -0.001  -0.007  -0.000  -8.157  -0.000  -0.001
 -0.000  -8.005  -0.000   0.000  -0.008  -0.000  -8.139  -0.000
 -0.001  -0.000  -8.022  -0.000  -0.001  -0.001  -0.000  -8.156
 -0.007   0.000  -0.000  -8.006  -0.000  -0.007   0.000  -0.000
 -0.000  -0.008  -0.001  -0.000  -8.023  -0.000  -0.008  -0.001
 -0.000   0.000  -0.002   0.000  -0.000  -0.000   0.000  -0.002
 -0.000   0.000  -0.002   0.000  -0.000  -0.000   0.000  -0.002
  0.000  -0.001  -0.000   0.000  -0.000   0.000  -0.001  -0.000
  0.000   0.000  -0.002   0.000  -0.000   0.000   0.000  -0.002
 -0.000   0.000   0.000  -0.001   0.000  -0.000   0.000   0.000
  0.000  -0.002  -0.000   0.000  -0.000   0.000  -0.002  -0.000
  0.000   0.000  -0.003   0.000  -0.000   0.000   0.000  -0.003
  0.000   0.000   0.000  -0.002   0.000   0.000   0.000   0.000
 total augmentation occupancy for first ion, spin component:           1
  6.150   0.021  -0.028   0.235  -0.002  -4.151  -0.019   0.020  -0.341   0.002  -0.006  -0.001   0.001  -0.001   0.003   0.000
  0.021   6.308   0.010   0.013   0.196  -0.020  -4.098  -0.016  -0.017  -0.307  -0.013  -0.001   0.003  -0.002  -0.002  -0.001
 -0.028   0.010   6.222  -0.004  -0.053   0.020  -0.016  -4.307  -0.003   0.038   0.060  -0.033  -0.001   0.016  -0.004  -0.000
  0.235   0.013  -0.004   6.266   0.019  -0.341  -0.017  -0.003  -4.084  -0.018  -0.016   0.001  -0.002  -0.006   0.002   0.000
 -0.002   0.196  -0.053   0.019   6.209   0.002  -0.307   0.038  -0.018  -4.199  -0.007  -0.000   0.000  -0.002   0.000  -0.000
 -4.151  -0.020   0.020  -0.341   0.002   4.063   0.018  -0.014   0.421  -0.002   0.008  -0.001  -0.002   0.001  -0.005   0.000
 -0.019  -4.098  -0.016  -0.017  -0.307   0.018   3.842   0.021   0.020   0.390   0.015  -0.001  -0.007   0.002   0.002   0.001
  0.020  -0.016  -4.307  -0.003   0.038  -0.014   0.021   4.282   0.009  -0.027  -0.064   0.029   0.002  -0.016   0.004  -0.000
 -0.341  -0.017  -0.003  -4.084  -0.018   0.421   0.020   0.009   3.851   0.017   0.016  -0.003   0.002   0.006  -0.008  -0.000
  0.002  -0.307   0.038  -0.018  -4.199  -0.002   0.390  -0.027   0.017   4.102   0.009  -0.002  -0.002   0.001  -0.000   0.000
 -0.006  -0.013   0.060  -0.016  -0.007   0.008   0.015  -0.064   0.016   0.009   3.070  -0.849  -0.001  -0.014  -0.000   0.000
 -0.001  -0.001  -0.033   0.001  -0.000  -0.001  -0.001   0.029  -0.003  -0.002  -0.849   0.257  -0.000   0.004  -0.000  -0.000
  0.001   0.003  -0.001  -0.002   0.000  -0.002  -0.007   0.002   0.002  -0.002  -0.001  -0.000   0.248   0.001   0.000  -0.009
 -0.001  -0.002   0.016  -0.006  -0.002   0.001   0.002  -0.016   0.006   0.001  -0.014   0.004   0.001   0.243   0.001  -0.000
  0.003  -0.002  -0.004   0.002   0.000  -0.005   0.002   0.004  -0.008  -0.000  -0.000  -0.000   0.000   0.001   0.250  -0.000
  0.000  -0.001  -0.000   0.000  -0.000   0.000   0.001  -0.000  -0.000   0.000   0.000  -0.000  -0.009  -0.000  -0.000   0.000
 -0.000   0.000  -0.002   0.000  -0.000  -0.000  -0.000   0.001  -0.000   0.000   0.000  -0.000  -0.000  -0.008  -0.000   0.000
 -0.000   0.000   0.000  -0.001   0.000   0.000  -0.000  -0.000   0.001   0.000   0.000  -0.000  -0.000  -0.000  -0.009   0.000


------------------------ aborting loop because EDIFF is reached ----------------------------------------



 DIPCOR: dipole corrections for dipol
 direction  3 min pos    20,
 dipolmoment           0.000000      0.000000     -0.292788 electrons x Angstroem
 Tr[quadrupol]      -946.228675

 energy correction for charged system         0.000000 eV
 dipol+quadrupol energy correction            0.009411 eV
 added-field ion interaction          0.000000 eV  (added to PSCEN)

 
  *************** adding dipol energy to TOTEN NOW **************** 
    CHARGE:  cpu time    0.7364: real time    0.7364
    FORLOC:  cpu time    0.0069: real time    0.0069
    FORNL :  cpu time    3.2386: real time    3.2387
    STRESS:  cpu time    9.7680: real time    9.7718
    FORCOR:  cpu time    0.0292: real time    0.0292
    FORHAR:  cpu time    0.0121: real time    0.0121
    MIXING:  cpu time    0.0040: real time    0.0040
    OFIELD:  cpu time    0.0000: real time    0.0001

  FORCE on cell =-STRESS in cart. coord.  units (eV):
  Direction    XX          YY          ZZ          XY          YZ          ZX
  --------------------------------------------------------------------------------------
  Alpha Z   324.87462   324.87462   324.87462
  Ewald  110476.65282110475.05612************     6.86778    11.79132     4.08566
  Hartree112971.76662112971.53439************     2.62859     3.29891     1.14859
  E(xc)    -737.60854  -737.64105  -741.85402     0.01558     0.07066     0.02553
  Local  ************************228608.33392    -8.89909   -13.10839    -4.47650
  n-local    44.97531    44.62861    26.73786    -0.22877    -0.00177    -0.20915
  augment   834.63298   835.22062   862.05891     0.04806    -0.52782    -0.15297
  Kinetic  2385.54394  2385.80366  2455.45665    -0.54114    -1.61155    -0.54996
  Fock        0.00000     0.00000     0.00000     0.00000     0.00000     0.00000
  -------------------------------------------------------------------------------------
  Total      -9.93862    -9.99975     2.96843    -0.10899    -0.08864    -0.12880
  in kB     -19.32156   -19.44040     5.77089    -0.21189    -0.17233    -0.25039
  external pressure =      -11.00 kB  Pullay stress =        0.00 kB


 VOLUME and BASIS-vectors are now :
 -----------------------------------------------------------------------------
  energy-cutoff  :      350.00
  volume of cell :      824.13
      direct lattice vectors                 reciprocal lattice vectors
     5.557859300  0.000000000  0.000000000     0.179925390 -0.103879972  0.000000000
     2.778929650  4.813247345  0.000000000     0.000000000  0.207759944  0.000000000
     0.000000000  0.000000000 30.806959674     0.000000000  0.000000000  0.032460198

  length of vectors
     5.557859300  5.557859300 30.806959674     0.207759944  0.207759944  0.032460198


 FORCES acting on ions
    electron-ion (+dipol)            ewald-force                    non-local-force                 convergence-correction
 -----------------------------------------------------------------------------------------------
   0.162E+00 0.373E+00 -.818E+03   -.176E+00 -.396E+00 0.818E+03   0.133E-01 0.339E-01 0.197E+00   -.233E-03 0.205E-03 0.276E-01
   0.107E+01 0.303E+01 -.131E+04   -.129E+01 -.395E+01 0.131E+04   0.254E+00 0.987E+00 -.144E+01   -.418E-05 -.260E-04 -.348E-02
   -.171E+02 -.254E+02 -.312E+03   0.187E+02 0.277E+02 0.309E+03   -.169E+01 -.253E+01 0.310E+01   0.405E-04 0.393E-04 -.950E-03
   0.939E+01 -.380E+02 -.340E+03   -.104E+02 0.422E+02 0.343E+03   0.103E+01 -.429E+01 -.324E+01   -.103E-04 0.426E-04 -.717E-03
   0.409E+02 0.267E+02 -.324E+03   -.454E+02 -.296E+02 0.324E+03   0.461E+01 0.301E+01 0.625E+00   -.574E-04 -.438E-04 -.902E-03
   -.370E+02 0.284E+02 -.333E+03   0.413E+02 -.315E+02 0.335E+03   -.423E+01 0.321E+01 -.170E+01   0.470E-04 -.353E-04 -.804E-03
   -.330E+00 0.818E-01 0.266E+04   0.318E+00 -.706E-01 -.266E+04   0.230E-01 0.325E-01 -.208E+00   -.143E-04 -.128E-04 0.326E-02
   -.470E+01 -.488E+01 -.263E+04   0.477E+01 0.510E+01 0.263E+04   0.516E-01 -.152E+00 0.982E+00   0.120E-03 0.170E-03 0.481E-02
   0.359E+01 -.696E+01 -.264E+04   -.362E+01 0.731E+01 0.264E+04   -.750E-01 -.283E+00 0.914E+00   -.117E-03 0.288E-03 0.460E-02
   -.312E+00 0.703E+01 -.264E+04   0.461E+00 -.732E+01 0.264E+04   -.154E+00 0.208E+00 0.992E+00   0.874E-04 -.318E-03 0.470E-02
   0.302E+01 0.823E+01 -.257E+04   -.332E+01 -.876E+01 0.257E+04   0.329E+00 0.561E+00 0.254E+01   -.131E-03 -.188E-03 0.424E-02
   0.987E-01 0.157E+00 0.296E+04   -.105E+00 -.177E+00 -.296E+04   0.167E-01 0.608E-01 -.592E+00   0.198E-04 -.602E-04 0.323E-02
   -.804E-01 -.204E+01 -.740E+03   0.103E+00 0.201E+01 0.740E+03   -.399E-01 0.896E-01 0.433E+00   0.208E-03 0.346E-03 0.248E-01
   0.138E+00 -.535E+01 0.114E+04   -.102E+00 0.558E+01 -.114E+04   -.371E-01 -.558E-01 -.497E+00   0.630E-03 -.248E-03 0.210E-01
   0.151E+00 -.494E+01 0.115E+04   -.140E+00 0.512E+01 -.115E+04   -.395E-02 0.630E-02 -.326E+00   -.626E-03 0.705E-04 0.207E-01
   0.473E+00 0.552E+01 0.116E+04   -.483E+00 -.570E+01 -.116E+04   -.164E-01 -.107E-01 -.248E+00   0.283E-03 -.269E-03 0.211E-01
   -.268E+00 0.540E+01 0.115E+04   0.300E+00 -.559E+01 -.115E+04   -.148E-01 -.851E-02 -.299E+00   -.282E-03 0.454E-03 0.205E-01
   -.312E+00 0.128E-01 0.296E+04   0.253E+00 0.595E-02 -.296E+04   0.756E-01 -.497E-01 -.780E+00   -.405E-04 0.497E-04 0.313E-02
   -.675E-01 -.216E+00 0.296E+04   0.995E-01 0.222E+00 -.296E+04   -.246E-01 -.429E-01 -.768E+00   0.471E-04 0.285E-04 0.295E-02
   -.257E+01 0.842E+00 -.741E+03   0.248E+01 -.786E+00 0.741E+03   0.113E+00 -.794E-01 0.332E+00   0.129E-03 -.140E-03 0.246E-01
   0.383E+01 0.146E+01 -.747E+03   -.364E+01 -.136E+01 0.746E+03   -.259E+00 -.110E+00 0.242E+00   -.140E-03 -.373E-03 0.247E-01
 -----------------------------------------------------------------------------------------------
   0.200E-01 -.565E+00 -.488E+00   -.444E-13 -.533E-14 0.114E-12   -.272E-01 0.580E+00 0.263E+00   -.428E-04 -.196E-04 0.209E+00
 
 
 POSITION                                       TOTAL-FORCE (eV/Angst)
 -----------------------------------------------------------------------------------
      2.81170      1.60170     16.72414        -0.000389      0.009823      0.112354
      0.12873      0.18105     21.71150         0.036916      0.063787      0.191488
      0.49969      0.73473     20.77899        -0.116454     -0.212275      0.251213
      5.48250      1.03567     22.36792        -0.023978     -0.010361      0.290925
      7.55052      4.39920     21.58159         0.062807      0.059880     -0.036068
      3.73797      4.36845     22.05501         0.012792      0.011257      0.163562
      2.79991      0.01433     12.11482         0.010964      0.043035      1.146449
      4.18330      2.39016     19.02411         0.126092      0.062138      0.184555
      1.41442      2.38854     19.04016        -0.101758      0.066591      0.080669
      5.57988      4.79240     19.03273        -0.004889     -0.087370      0.142140
      2.78804      4.78639     19.04430         0.024742      0.029536     -0.227814
      0.02194      0.01568     12.11102         0.011271      0.040079     -0.377490
      5.59328      1.60728     16.71556        -0.017098      0.051701     -0.256280
      5.59249      3.22389     14.43970        -0.000431      0.181742     -0.260291
      2.81208      3.22162     14.43374         0.006621      0.187536     -0.162044
      4.20159      0.81610     14.43144        -0.025998     -0.190552     -0.488480
      1.42151      0.81534     14.43376         0.017083     -0.199997     -0.516739
      4.19020      2.42278     12.10854         0.017161     -0.031579     -0.075108
      1.41005      2.42225     12.11334         0.007823     -0.036700     -0.084971
      4.20120      4.01391     16.71910         0.017432     -0.024638     -0.022026
      6.99103      4.01482     16.72949        -0.060710     -0.013634     -0.056046
 -----------------------------------------------------------------------------------
    total drift:                               -0.007237      0.015111     -0.016436


--------------------------------------------------------------------------------------------------------



  FREE ENERGIE OF THE ION-ELECTRON SYSTEM (eV)
  ---------------------------------------------------
  free  energy   TOTEN  =      -115.35477151 eV

  energy  without entropy=     -115.33891119  energy(sigma->0) =     -115.34948474
 


--------------------------------------------------------------------------------------------------------


    POTLOK:  cpu time    0.0268: real time    0.0268


--------------------------------------------------------------------------------------------------------


     LOOP+:  cpu time  593.0992: real time  593.3142
    4ORBIT:  cpu time    0.0000: real time    0.0000

 total amount of memory used by VASP MPI-rank0   164312. kBytes
=======================================================================

   base      :      30000. kBytes
   nonlr-proj:       2359. kBytes
   fftplans  :       2967. kBytes
   grid      :       6321. kBytes
   one-center:         93. kBytes
   wavefun   :     122572. kBytes
 
  
  
 General timing and accounting informations for this job:
 ========================================================
  
                  Total CPU time used (sec):      601.022
                            User time (sec):      599.143
                          System time (sec):        1.879
                         Elapsed time (sec):      601.449
  
                   Maximum memory used (kb):      206360.
                   Average memory used (kb):           0.
  
                          Minor page faults:        86968
                          Major page faults:            0
                 Voluntary context switches:         1174
