       N       E                     dE             d eps       ncg     rms          rms(c)
DAV:   1     0.101367158325E+04    0.10137E+04   -0.58206E+04 19328   0.103E+03
DAV:   2    -0.296408220971E+02   -0.10433E+04   -0.96938E+03 23816   0.258E+02
DAV:   3    -0.121233998815E+03   -0.91593E+02   -0.84774E+02 23080   0.755E+01
DAV:   4    -0.125669800658E+03   -0.44358E+01   -0.42032E+01 25664   0.167E+01
DAV:   5    -0.125819108884E+03   -0.14931E+00   -0.14785E+00 27136   0.303E+00    0.425E+01
DAV:   6    -0.118912302457E+03    0.69068E+01   -0.29275E+01 21956   0.203E+01    0.310E+01
DAV:   7    -0.142331035425E+03   -0.23419E+02   -0.94577E+01 24980   0.549E+01    0.442E+01
DAV:   8    -0.119403979884E+03    0.22927E+02   -0.39103E+01 25860   0.324E+01    0.169E+01
DAV:   9    -0.120321940658E+03   -0.91796E+00   -0.35946E+01 21396   0.275E+01    0.217E+01
DAV:  10    -0.125180763272E+03   -0.48588E+01   -0.25425E+01 26592   0.289E+01    0.284E+01
DAV:  11    -0.118249590344E+03    0.69312E+01   -0.27338E+01 32212   0.288E+01    0.147E+01
DAV:  12    -0.116754726066E+03    0.14949E+01   -0.84324E+00 27424   0.120E+01    0.827E+00
DAV:  13    -0.116183655288E+03    0.57107E+00   -0.19429E+00 28492   0.631E+00    0.425E+00
DAV:  14    -0.116106354969E+03    0.77300E-01   -0.12110E-01 22476   0.150E+00    0.312E+00
DAV:  15    -0.116073404096E+03    0.32951E-01   -0.12152E-01 25052   0.158E+00    0.236E+00
DAV:  16    -0.116089547772E+03   -0.16144E-01   -0.10713E-01 27016   0.152E+00    0.232E+00
DAV:  17    -0.116069069926E+03    0.20478E-01   -0.21900E-02 22496   0.695E-01    0.172E+00
DAV:  18    -0.116044574529E+03    0.24495E-01   -0.78708E-02 25744   0.114E+00    0.821E-01
DAV:  19    -0.116042788731E+03    0.17858E-02   -0.82078E-03 20936   0.373E-01    0.638E-01
DAV:  20    -0.116041311412E+03    0.14773E-02   -0.40754E-03 25280   0.274E-01    0.444E-01
DAV:  21    -0.116041186055E+03    0.12536E-03   -0.13021E-03 25972   0.155E-01    0.360E-01
DAV:  22    -0.116041156757E+03    0.29298E-04   -0.84337E-04 20688   0.121E-01    0.262E-01
DAV:  23    -0.116040860145E+03    0.29661E-03   -0.89658E-04 21672   0.132E-01    0.126E-01
DAV:  24    -0.116040884526E+03   -0.24381E-04   -0.14544E-04 20948   0.476E-02    0.963E-02
DAV:  25    -0.116040951774E+03   -0.67248E-04   -0.11904E-04 17804   0.445E-02    0.609E-02
DAV:  26    -0.116041065079E+03   -0.11331E-03   -0.82851E-05 18572   0.410E-02    0.381E-02
DAV:  27    -0.116041127654E+03   -0.62575E-04   -0.23053E-05 12308   0.238E-02    0.332E-02
DAV:  28    -0.116041249888E+03   -0.12223E-03   -0.23938E-05 12524   0.228E-02    0.191E-02
DAV:  29    -0.116041372551E+03   -0.12266E-03   -0.10579E-05 12524   0.125E-02    0.185E-02
DAV:  30    -0.116041449708E+03   -0.77157E-04   -0.48295E-06 11048   0.946E-03    0.119E-02
DAV:  31    -0.116041545955E+03   -0.96247E-04   -0.71506E-06 11472   0.998E-03    0.794E-03
DAV:  32    -0.116041656657E+03   -0.11070E-03   -0.59494E-06 12608   0.779E-03    0.801E-03
DAV:  33    -0.116041678356E+03   -0.21699E-04   -0.22541E-06 11148   0.608E-03    0.355E-03
DAV:  34    -0.116041686398E+03   -0.80416E-05   -0.10767E-06 10552   0.378E-03
   1 F= -.11604125E+03 E0= -.11602924E+03  d E =-.360548E-01
