 vasp.5.4.4.18Apr17-6-g9f103f2a35 (build Apr 28 2017 10:53:45) complex          
  
 executed on             LinuxIFC date 2019.07.18  16:22:07
 running on   16 total cores
 distrk:  each k-point on   16 cores,    1 groups
 distr:  one band on NCORES_PER_BAND=   4 cores,    4 groups


--------------------------------------------------------------------------------------------------------


 INCAR:
 POTCAR:    PAW_PBE Au 04Oct2007                  
 POTCAR:    PAW_PBE C 08Apr2002                   
 POTCAR:    PAW_PBE H 15Jun2001                   
 POTCAR:    PAW_PBE Ir 06Sep2000                  
 POTCAR:    PAW_PBE Pt 04Feb2005                  
 POTCAR:    PAW_PBE Au 04Oct2007                  
   VRHFIN =Au: s1d10                                                            
   LEXCH  = PE                                                                  
   EATOM  =   926.0867 eV,   68.0654 Ry                                         
                                                                                
   TITEL  = PAW_PBE Au 04Oct2007                                                
   LULTRA =        F    use ultrasoft PP ?                                      
   IUNSCR =        1    unscreen: 0-lin 1-nonlin 2-no                           
   RPACOR =    2.330    partial core radius                                     
   POMASS =  196.966; ZVAL   =   11.000    mass and valenz                      
   RCORE  =    2.500    outmost cutoff radius                                   
   RWIGS  =    2.840; RWIGS  =    1.503    wigner-seitz radius (au A)           
   ENMAX  =  229.943; ENMIN  =  172.457 eV                                      
   ICORE  =        3    local potential                                         
   LCOR   =        T    correct aug charges                                     
   LPAW   =        T    paw PP                                                  
   EAUG   =  356.670                                                            
   DEXC   =    0.000                                                            
   RMAX   =    2.562    core radius for proj-oper                               
   RAUG   =    1.300    factor for augmentation sphere                          
   RDEP   =    2.598    radius for radial grids                                 
   RDEPT  =    2.193    core radius for aug-charge                              
                                                                                
   Atomic configuration                                                         
   16 entries                                                                   
     n  l   j            E        occ.                                          
     1  0  0.50    -80748.5001   2.0000                                         
     2  0  0.50    -14244.7466   2.0000                                         
     2  1  1.50    -12310.9591   6.0000                                         
     3  0  0.50     -3362.1768   2.0000                                         
     3  1  1.50     -2801.5463   6.0000                                         
     3  2  2.50     -2203.8206  10.0000                                         
     4  0  0.50      -729.8168   2.0000                                         
     4  1  1.50      -546.0527   6.0000                                         
     4  2  2.50      -325.7302  10.0000                                         
     4  3  3.50       -81.1472  14.0000                                         
     5  0  0.50      -108.3201   2.0000                                         
     5  1  1.50       -59.7479   6.0000                                         
     5  2  2.50        -6.8783  10.0000                                         
     6  0  0.50        -5.7602   1.0000                                         
     6  1  1.50        -6.8029   0.0000                                         
     5  3  2.50        -1.3606   0.0000                                         
   Description                                                                  
     l       E           TYP  RCUT    TYP  RCUT                                 
     2     -6.8782861     23  2.500                                             
     2     -8.2388687     23  2.500                                             
     0     -5.7601759     23  2.500                                             
     0     -0.8493231     23  2.500                                             
     1     -2.7211652     23  2.500                                             
     1     27.2116520     23  2.500                                             
     3     -1.3605826     23  2.500                                             
  local pseudopotential read in
  partial core-charges read in
  partial kinetic energy density read in
  atomic valenz-charges read in
  non local Contribution for L=           2  read in
    real space projection operators read in
  non local Contribution for L=           2  read in
    real space projection operators read in
  non local Contribution for L=           0  read in
    real space projection operators read in
  non local Contribution for L=           0  read in
    real space projection operators read in
  non local Contribution for L=           1  read in
    real space projection operators read in
  non local Contribution for L=           1  read in
    real space projection operators read in
    PAW grid and wavefunctions read in
 
   number of l-projection  operators is LMAX  =           6
   number of lm-projection operators is LMMAX =          18
 
 POTCAR:    PAW_PBE C 08Apr2002                   
   VRHFIN =C: s2p2                                                              
   LEXCH  = PE                                                                  
   EATOM  =   147.1560 eV,   10.8157 Ry                                         
                                                                                
   TITEL  = PAW_PBE C 08Apr2002                                                 
   LULTRA =        F    use ultrasoft PP ?                                      
   IUNSCR =        1    unscreen: 0-lin 1-nonlin 2-no                           
   RPACOR =    1.200    partial core radius                                     
   POMASS =   12.011; ZVAL   =    4.000    mass and valenz                      
   RCORE  =    1.500    outmost cutoff radius                                   
   RWIGS  =    1.630; RWIGS  =    0.863    wigner-seitz radius (au A)           
   ENMAX  =  400.000; ENMIN  =  300.000 eV                                      
   ICORE  =        2    local potential                                         
   LCOR   =        T    correct aug charges                                     
   LPAW   =        T    paw PP                                                  
   EAUG   =  644.873                                                            
   DEXC   =    0.000                                                            
   RMAX   =    1.529    core radius for proj-oper                               
   RAUG   =    1.300    factor for augmentation sphere                          
   RDEP   =    1.501    radius for radial grids                                 
   RDEPT  =    1.300    core radius for aug-charge                              
                                                                                
   Atomic configuration                                                         
    4 entries                                                                   
     n  l   j            E        occ.                                          
     1  0  0.50      -273.3789   2.0000                                         
     2  0  0.50       -13.7508   2.0000                                         
     2  1  0.50        -5.2854   2.0000                                         
     3  2  1.50        -5.4423   0.0000                                         
   Description                                                                  
     l       E           TYP  RCUT    TYP  RCUT                                 
     0    -13.7508458     23  1.200                                             
     0     -8.2022199     23  1.200                                             
     1     -5.2854383     23  1.500                                             
     1     34.0145650     23  1.500                                             
     2     -5.4423304      7  1.500                                             
  local pseudopotential read in
  partial core-charges read in
  partial kinetic energy density read in
  atomic valenz-charges read in
  non local Contribution for L=           0  read in
    real space projection operators read in
  non local Contribution for L=           0  read in
    real space projection operators read in
  non local Contribution for L=           1  read in
    real space projection operators read in
  non local Contribution for L=           1  read in
    real space projection operators read in
    PAW grid and wavefunctions read in
 
   number of l-projection  operators is LMAX  =           4
   number of lm-projection operators is LMMAX =           8
 
 POTCAR:    PAW_PBE H 15Jun2001                   
   VRHFIN =H: ultrasoft test                                                    
   LEXCH  = PE                                                                  
   EATOM  =    12.4884 eV,    0.9179 Ry                                         
                                                                                
   TITEL  = PAW_PBE H 15Jun2001                                                 
   LULTRA =        F    use ultrasoft PP ?                                      
   IUNSCR =        0    unscreen: 0-lin 1-nonlin 2-no                           
   RPACOR =    0.000    partial core radius                                     
   POMASS =    1.000; ZVAL   =    1.000    mass and valenz                      
   RCORE  =    1.100    outmost cutoff radius                                   
   RWIGS  =    0.700; RWIGS  =    0.370    wigner-seitz radius (au A)           
   ENMAX  =  250.000; ENMIN  =  200.000 eV                                      
   RCLOC  =    0.701    cutoff for local pot                                    
   LCOR   =        T    correct aug charges                                     
   LPAW   =        T    paw PP                                                  
   EAUG   =  400.000                                                            
   RMAX   =    1.123    core radius for proj-oper                               
   RAUG   =    1.200    factor for augmentation sphere                          
   RDEP   =    1.112    radius for radial grids                                 
   RDEPT  =    0.926    core radius for aug-charge                              
                                                                                
   Atomic configuration                                                         
    2 entries                                                                   
     n  l   j            E        occ.                                          
     1  0  0.50        -6.4927   1.0000                                         
     2  1  0.50        -3.4015   0.0000                                         
   Description                                                                  
     l       E           TYP  RCUT    TYP  RCUT                                 
     0     -6.4927494     23  1.100                                             
     0      6.8029130     23  1.100                                             
     1     -4.0817478     23  1.100                                             
  local pseudopotential read in
  atomic valenz-charges read in
  non local Contribution for L=           0  read in
    real space projection operators read in
  non local Contribution for L=           0  read in
    real space projection operators read in
  non local Contribution for L=           1  read in
    real space projection operators read in
    PAW grid and wavefunctions read in
 
   number of l-projection  operators is LMAX  =           3
   number of lm-projection operators is LMMAX =           5
 
 POTCAR:    PAW_PBE Ir 06Sep2000                  
   VRHFIN =Ir: s1d8                                                             
   LEXCH  = PE                                                                  
   EATOM  =   560.1833 eV,   41.1723 Ry                                         
                                                                                
   TITEL  = PAW_PBE Ir 06Sep2000                                                
   LULTRA =        F    use ultrasoft PP ?                                      
   IUNSCR =        1    unscreen: 0-lin 1-nonlin 2-no                           
   RPACOR =    2.250    partial core radius                                     
   POMASS =  192.220; ZVAL   =    9.000    mass and valenz                      
   RCORE  =    2.600    outmost cutoff radius                                   
   RWIGS  =    2.690; RWIGS  =    1.423    wigner-seitz radius (au A)           
   ENMAX  =  210.864; ENMIN  =  158.148 eV                                      
   RCLOC  =    1.857    cutoff for local pot                                    
   LCOR   =        T    correct aug charges                                     
   LPAW   =        T    paw PP                                                  
   EAUG   =  318.962                                                            
   DEXC   =    0.000                                                            
   RMAX   =    2.667    core radius for proj-oper                               
   RAUG   =    1.300    factor for augmentation sphere                          
   RDEP   =    2.748    radius for radial grids                                 
   RDEPT  =    2.300    core radius for aug-charge                              
                                                                                
   Atomic configuration                                                         
   16 entries                                                                   
     n  l   j            E        occ.                                          
     1  0  0.50    -76100.0449   2.0000                                         
     2  0  0.50    -13308.1683   2.0000                                         
     2  1  1.50    -11558.0021   6.0000                                         
     3  0  0.50     -3110.7274   2.0000                                         
     3  1  1.50     -2599.2109   6.0000                                         
     3  2  2.50     -2037.1515  10.0000                                         
     4  0  0.50      -661.6001   2.0000                                         
     4  1  1.50      -493.8981   6.0000                                         
     4  2  2.50      -288.1909  10.0000                                         
     4  3  3.50       -59.5718  14.0000                                         
     5  0  0.50       -95.3879   2.0000                                         
     5  1  1.50       -52.2747   6.0000                                         
     5  2  2.50        -5.4180   8.0000                                         
     6  0  0.50        -5.5479   1.0000                                         
     6  1  1.50        -6.8029   0.0000                                         
     5  3  2.50        -1.3606   0.0000                                         
   Description                                                                  
     l       E           TYP  RCUT    TYP  RCUT                                 
     2     -5.4179967     23  2.600                                             
     2     -6.7785793     23  2.600                                             
     0     -5.5478636     23  2.600                                             
     0      2.2542272     23  2.600                                             
     1     -2.7211652     23  2.600                                             
     1     20.4087390     23  2.600                                             
  local pseudopotential read in
  partial core-charges read in
  partial kinetic energy density read in
  atomic valenz-charges read in
  non local Contribution for L=           2  read in
    real space projection operators read in
  non local Contribution for L=           2  read in
    real space projection operators read in
  non local Contribution for L=           0  read in
    real space projection operators read in
  non local Contribution for L=           0  read in
    real space projection operators read in
  non local Contribution for L=           1  read in
    real space projection operators read in
  non local Contribution for L=           1  read in
    real space projection operators read in
    PAW grid and wavefunctions read in
 
   number of l-projection  operators is LMAX  =           6
   number of lm-projection operators is LMMAX =          18
 
 POTCAR:    PAW_PBE Pt 04Feb2005                  
   VRHFIN =Pt: s1d9                                                             
   LEXCH  = PE                                                                  
   EATOM  =   729.1176 eV,   53.5886 Ry                                         
                                                                                
   TITEL  = PAW_PBE Pt 04Feb2005                                                
   LULTRA =        F    use ultrasoft PP ?                                      
   IUNSCR =        1    unscreen: 0-lin 1-nonlin 2-no                           
   RPACOR =    2.330    partial core radius                                     
   POMASS =  195.080; ZVAL   =   10.000    mass and valenz                      
   RCORE  =    2.600    outmost cutoff radius                                   
   RWIGS  =    2.750; RWIGS  =    1.455    wigner-seitz radius (au A)           
   ENMAX  =  230.283; ENMIN  =  172.712 eV                                      
   ICORE  =        3    local potential                                         
   LCOR   =        T    correct aug charges                                     
   LPAW   =        T    paw PP                                                  
   EAUG   =  358.966                                                            
   DEXC   =    0.000                                                            
   RMAX   =    2.658    core radius for proj-oper                               
   RAUG   =    1.300    factor for augmentation sphere                          
   RDEP   =    2.761    radius for radial grids                                 
   RDEPT  =    2.203    core radius for aug-charge                              
                                                                                
   Atomic configuration                                                         
   16 entries                                                                   
     n  l   j            E        occ.                                          
     1  0  0.50    -78401.1885   2.0000                                         
     2  0  0.50    -13770.7750   2.0000                                         
     2  1  1.50    -11931.0468   6.0000                                         
     3  0  0.50     -3234.7234   2.0000                                         
     3  1  1.50     -2699.2216   6.0000                                         
     3  2  2.50     -2119.5714  10.0000                                         
     4  0  0.50      -695.1528   2.0000                                         
     4  1  1.50      -519.6034   6.0000                                         
     4  2  2.50      -306.6786  10.0000                                         
     4  3  3.50       -70.1041  14.0000                                         
     5  0  0.50      -101.7747   2.0000                                         
     5  1  1.50       -55.9873   6.0000                                         
     5  2  2.50        -6.1423   9.0000                                         
     6  0  0.50        -5.6573   1.0000                                         
     6  1  1.50        -6.8029   0.0000                                         
     5  3  2.50        -1.3606   0.0000                                         
   Description                                                                  
     l       E           TYP  RCUT    TYP  RCUT                                 
     2     -6.1423404     23  2.500                                             
     2     -7.5029230     23  2.500                                             
     0     -5.6573207     23  2.500                                             
     0      0.7416693     23  2.500                                             
     1     -2.7211652     23  2.600                                             
     1     20.4087390     23  2.600                                             
     3     -1.3605826     23  2.500                                             
  local pseudopotential read in
  partial core-charges read in
  partial kinetic energy density read in
  atomic valenz-charges read in
  non local Contribution for L=           2  read in
    real space projection operators read in
  non local Contribution for L=           2  read in
    real space projection operators read in
  non local Contribution for L=           0  read in
    real space projection operators read in
  non local Contribution for L=           0  read in
    real space projection operators read in
  non local Contribution for L=           1  read in
    real space projection operators read in
  non local Contribution for L=           1  read in
    real space projection operators read in
    PAW grid and wavefunctions read in
 
   number of l-projection  operators is LMAX  =           6
   number of lm-projection operators is LMMAX =          18
 
 Optimization of the real space projectors (new method)

 maximal supplied QI-value         = 15.12
 optimisation between [QCUT,QGAM] = [  9.52, 19.05] = [ 25.40,101.61] Ry 
 Optimized for a Real-space Cutoff    1.57 Angstroem

   l    n(q)    QCUT    max X(q) W(low)/X(q) W(high)/X(q)  e(spline) 
   2      8     9.524    60.898    0.38E-03    0.43E-04    0.84E-07
   2      8     9.524    58.894    0.38E-03    0.47E-04    0.88E-07
   0      9     9.524   109.617    0.60E-04    0.64E-04    0.80E-07
   0      9     9.524    75.026    0.59E-04    0.62E-04    0.78E-07
   1      8     9.524    16.344    0.99E-04    0.18E-03    0.87E-07
   1      8     9.524    10.160    0.78E-04    0.15E-03    0.74E-07
 Optimization of the real space projectors (new method)

 maximal supplied QI-value         = 25.13
 optimisation between [QCUT,QGAM] = [  9.55, 19.10] = [ 25.54,102.17] Ry 
 Optimized for a Real-space Cutoff    1.39 Angstroem

   l    n(q)    QCUT    max X(q) W(low)/X(q) W(high)/X(q)  e(spline) 
   0      8     9.551   115.676    0.39E-03    0.54E-03    0.29E-06
   0      8     9.551    87.132    0.39E-03    0.54E-03    0.28E-06
   1      7     9.551     4.429    0.35E-03    0.51E-04    0.29E-06
   1      7     9.551     2.733    0.22E-03    0.42E-04    0.31E-06
 Optimization of the real space projectors (new method)

 maximal supplied QI-value         = 34.20
 optimisation between [QCUT,QGAM] = [  9.58, 19.15] = [ 25.68,102.74] Ry 
 Optimized for a Real-space Cutoff    1.31 Angstroem

   l    n(q)    QCUT    max X(q) W(low)/X(q) W(high)/X(q)  e(spline) 
   0      7     9.577    19.460    0.33E-03    0.12E-03    0.35E-06
   0      7     9.577    12.209    0.33E-03    0.11E-03    0.33E-06
   1      7     9.577     4.655    0.39E-03    0.14E-02    0.33E-06
 Optimization of the real space projectors (new method)

 maximal supplied QI-value         = 14.36
 optimisation between [QCUT,QGAM] = [  9.48, 19.10] = [ 25.16,102.17] Ry 
 Optimized for a Real-space Cutoff    1.57 Angstroem

   l    n(q)    QCUT    max X(q) W(low)/X(q) W(high)/X(q)  e(spline) 
   2      8     9.479   134.116    0.18E-03    0.75E-03    0.26E-06
   2      8     9.479   130.192    0.18E-03    0.75E-03    0.27E-06
   0      9     9.479    60.310    0.39E-03    0.24E-03    0.63E-07
   0      9     9.479    39.218    0.36E-03    0.22E-03    0.59E-07
   1      8     9.479    18.439    0.20E-03    0.15E-03    0.16E-06
   1      8     9.479    12.760    0.16E-03    0.11E-03    0.13E-06
 Optimization of the real space projectors (new method)

 maximal supplied QI-value         = 14.36
 optimisation between [QCUT,QGAM] = [  9.48, 19.10] = [ 25.16,102.17] Ry 
 Optimized for a Real-space Cutoff    1.57 Angstroem

   l    n(q)    QCUT    max X(q) W(low)/X(q) W(high)/X(q)  e(spline) 
   2      8     9.479    66.195    0.35E-03    0.53E-04    0.87E-07
   2      8     9.479    64.643    0.35E-03    0.57E-04    0.91E-07
   0      9     9.479    95.520    0.50E-04    0.62E-04    0.81E-07
   0      9     9.479    63.403    0.49E-04    0.60E-04    0.78E-07
   1      8     9.479    19.961    0.10E-03    0.87E-04    0.11E-06
   1      8     9.479    13.289    0.88E-04    0.71E-04    0.97E-07
  PAW_PBE Au 04Oct2007                  :
 energy of atom  1       EATOM= -926.0867
 kinetic energy error for atom=    0.0152 (will be added to EATOM!!)
  PAW_PBE C 08Apr2002                   :
 energy of atom  2       EATOM= -147.1560
 kinetic energy error for atom=    0.0854 (will be added to EATOM!!)
  PAW_PBE H 15Jun2001                   :
 energy of atom  3       EATOM=  -12.4884
 kinetic energy error for atom=    0.0203 (will be added to EATOM!!)
  PAW_PBE Ir 06Sep2000                  :
 energy of atom  4       EATOM= -560.1833
 kinetic energy error for atom=    0.0056 (will be added to EATOM!!)
  PAW_PBE Pt 04Feb2005                  :
 energy of atom  5       EATOM= -729.1176
 kinetic energy error for atom=    0.0144 (will be added to EATOM!!)
 
 
 POSCAR: Au  C  H Ir Pt                          
  positions in cartesian coordinates
  No initial velocities read in
 exchange correlation table for  LEXCH =        8
   RHO(1)=    0.500       N(1)  =     2000
   RHO(2)=  100.500       N(2)  =     4000
 


--------------------------------------------------------------------------------------------------------


 ion  position               nearest neighbor table
   1  0.004  0.002  0.614-   8 2.78   9 2.78  10 2.78  10 2.78   9 2.78   8 2.78  11 2.82  13 2.82
                            21 2.83
   2  0.996  0.037  0.728-   6 1.10   4 1.10   5 1.10   3 1.10
   3  0.016  0.174  0.705-   2 1.10
   4  0.816  0.162  0.749-   2 1.10
   5  0.963  0.883  0.711-   2 1.10
   6  0.187  0.929  0.748-   2 1.10
   7  0.500  0.000  0.389-  18 2.78  19 2.78  12 2.78  12 2.78  19 2.78  18 2.78  17 2.82  14 2.82
                            16 2.83
   8  0.504  0.502  0.615-   9 2.78  10 2.78   1 2.78   1 2.78  10 2.78   9 2.78  13 2.82  11 2.82
                            20 2.83
   9  0.004  0.502  0.615-   8 2.78  10 2.78   1 2.78   1 2.78  10 2.78   8 2.78  20 2.82  21 2.82
                            13 2.83
  10  0.504  0.002  0.615-   8 2.78   9 2.78   1 2.78   1 2.78   9 2.78   8 2.78  21 2.82  20 2.82
                            11 2.83
  11  0.336  0.835  0.539-  21 2.78  13 2.78  20 2.78  20 2.78  13 2.78  21 2.78  14 2.80  17 2.80
                            15 2.81   1 2.82   8 2.82  10 2.83
  12  0.000  0.000  0.389-   7 2.78  18 2.78  19 2.78  19 2.78  18 2.78   7 2.78  16 2.82  15 2.82
                            17 2.83
  13  0.836  0.335  0.539-  11 2.78  21 2.78  20 2.78  20 2.78  21 2.78  11 2.78  17 2.80  14 2.80
                            16 2.81   1 2.82   8 2.82   9 2.83
  14  0.668  0.667  0.465-  16 2.78  17 2.78  15 2.78  15 2.78  17 2.78  16 2.78  11 2.80  13 2.80
                            21 2.81  19 2.82   7 2.82  18 2.83
  15  0.168  0.667  0.465-  16 2.78  17 2.78  14 2.78  14 2.78  17 2.78  16 2.78  21 2.80  20 2.80
                            11 2.81  18 2.82  12 2.82  19 2.83
  16  0.668  0.167  0.464-  15 2.78  14 2.78  17 2.78  17 2.78  14 2.78  15 2.78  20 2.80  21 2.80
                            13 2.81  12 2.82  18 2.82   7 2.83
  17  0.168  0.167  0.465-  14 2.78  15 2.78  16 2.78  16 2.78  15 2.78  14 2.78  13 2.80  11 2.80
                            20 2.81   7 2.82  19 2.82  12 2.83
  18  0.500  0.500  0.389-   7 2.78  19 2.78  12 2.78  12 2.78  19 2.78   7 2.78  15 2.82  16 2.82
                            14 2.83
  19  0.000  0.500  0.389-  18 2.78   7 2.78  12 2.78  12 2.78   7 2.78  18 2.78  14 2.82  17 2.82
                            15 2.83
  20  0.336  0.335  0.539-  21 2.78  11 2.78  13 2.78  13 2.78  11 2.78  21 2.78  16 2.80  15 2.80
                            17 2.81   9 2.82  10 2.82   8 2.83
  21  0.836  0.835  0.539-  11 2.78  20 2.78  13 2.78  13 2.78  20 2.78  11 2.78  15 2.80  16 2.80
                            14 2.81  10 2.82   9 2.82   1 2.83
 
  LATTYP: Found a hexagonal cell.
 ALAT       =     5.5578593001
 C/A-ratio  =     5.5429542221
  
  Lattice vectors:
  
 A1 = (   2.7789296501,  -4.8132473446,   0.0000000000)
 A2 = (  -5.5578593001,   0.0000000000,   0.0000000000)
 A3 = (   0.0000000000,   0.0000000000, -30.8069596737)


Analysis of symmetry for initial positions (statically):
=====================================================================
 Subroutine PRICEL returns:
 Original cell was already a primitive cell.
 

 Routine SETGRP: Setting up the symmetry group for a 
 hexagonal supercell.


 Subroutine GETGRP returns: Found  1 space group operations
 (whereof  1 operations were pure point group operations)
 out of a pool of 24 trial point group operations.


The static configuration has the point symmetry C_1 .


Analysis of symmetry for dynamics (positions and initial velocities):
=====================================================================
 Subroutine PRICEL returns:
 Original cell was already a primitive cell.
 

 Routine SETGRP: Setting up the symmetry group for a 
 hexagonal supercell.


 Subroutine GETGRP returns: Found  1 space group operations
 (whereof  1 operations were pure point group operations)
 out of a pool of 24 trial point group operations.


The dynamic configuration has the point symmetry C_1 .


 Subroutine INISYM returns: Found  1 space group operations
 (whereof  1 operations are pure point group operations),
 and found     1 'primitive' translations

 
 
 KPOINTS: 0.1.Ir1.Au12                            

Automatic generation of k-mesh.
Space group operators:
 irot       det(A)        alpha          n_x          n_y          n_z        tau_x        tau_y        tau_z
    1     1.000000     0.000001     1.000000     0.000000     0.000000     0.000000     0.000000     0.000000
 
 Subroutine IBZKPT returns following result:
 ===========================================
 
 Found     96 irreducible k-points:
 
 Following reciprocal coordinates:
            Coordinates               Weight
  0.062500  0.062500  0.000000     16.000000
  0.000000  0.062500  0.000000     16.000000
 -0.062500  0.000000  0.000000     16.000000
  0.187500  0.062500  0.000000     16.000000
  0.125000  0.187500  0.000000     16.000000
 -0.062500  0.125000  0.000000     16.000000
  0.125000 -0.062500  0.000000     16.000000
 -0.062500 -0.187500  0.000000     16.000000
 -0.187500 -0.125000  0.000000     16.000000
  0.312500  0.062500  0.000000     16.000000
  0.250000  0.312500  0.000000     16.000000
 -0.062500  0.250000  0.000000     16.000000
  0.250000 -0.062500  0.000000     16.000000
 -0.062500 -0.312500  0.000000     16.000000
 -0.312500 -0.250000  0.000000     16.000000
  0.437500  0.062500  0.000000     16.000000
  0.375000  0.437500  0.000000     16.000000
 -0.062500  0.375000  0.000000     16.000000
  0.375000 -0.062500  0.000000     16.000000
 -0.062500 -0.437500  0.000000     16.000000
 -0.437500 -0.375000  0.000000     16.000000
 -0.437500  0.062500  0.000000     16.000000
  0.500000 -0.437500  0.000000     16.000000
 -0.062500  0.500000  0.000000     16.000000
  0.500000 -0.062500  0.000000     16.000000
 -0.062500  0.437500  0.000000     16.000000
  0.437500  0.500000  0.000000     16.000000
 -0.312500  0.062500  0.000000     16.000000
 -0.375000 -0.312500  0.000000     16.000000
 -0.062500 -0.375000  0.000000     16.000000
 -0.375000 -0.062500  0.000000     16.000000
 -0.062500  0.312500  0.000000     16.000000
  0.312500  0.375000  0.000000     16.000000
 -0.187500  0.062500  0.000000     16.000000
 -0.250000 -0.187500  0.000000     16.000000
 -0.062500 -0.250000  0.000000     16.000000
 -0.250000 -0.062500  0.000000     16.000000
 -0.062500  0.187500  0.000000     16.000000
  0.187500  0.250000  0.000000     16.000000
 -0.062500  0.062500  0.000000     16.000000
 -0.125000 -0.062500  0.000000     16.000000
 -0.062500 -0.125000  0.000000     16.000000
  0.187500  0.187500  0.000000     16.000000
  0.000000  0.187500  0.000000     16.000000
 -0.187500  0.000000  0.000000     16.000000
  0.312500  0.187500  0.000000     16.000000
  0.125000  0.312500  0.000000     16.000000
 -0.187500  0.125000  0.000000     16.000000
  0.125000 -0.187500  0.000000     16.000000
 -0.187500 -0.312500  0.000000     16.000000
 -0.312500 -0.125000  0.000000     16.000000
  0.437500  0.187500  0.000000     16.000000
  0.250000  0.437500  0.000000     16.000000
 -0.187500  0.250000  0.000000     16.000000
  0.250000 -0.187500  0.000000     16.000000
 -0.187500 -0.437500  0.000000     16.000000
 -0.437500 -0.250000  0.000000     16.000000
 -0.437500  0.187500  0.000000     16.000000
  0.375000 -0.437500  0.000000     16.000000
 -0.187500  0.375000  0.000000     16.000000
  0.375000 -0.187500  0.000000     16.000000
 -0.187500  0.437500  0.000000     16.000000
  0.437500 -0.375000  0.000000     16.000000
 -0.312500  0.187500  0.000000     16.000000
  0.500000 -0.312500  0.000000     16.000000
 -0.187500  0.500000  0.000000     16.000000
  0.500000 -0.187500  0.000000     16.000000
 -0.187500  0.312500  0.000000     16.000000
  0.312500  0.500000  0.000000     16.000000
 -0.187500  0.187500  0.000000     16.000000
 -0.375000 -0.187500  0.000000     16.000000
 -0.187500 -0.375000  0.000000     16.000000
  0.312500  0.312500  0.000000     16.000000
  0.000000  0.312500  0.000000     16.000000
 -0.312500  0.000000  0.000000     16.000000
  0.437500  0.312500  0.000000     16.000000
  0.125000  0.437500  0.000000     16.000000
 -0.312500  0.125000  0.000000     16.000000
  0.125000 -0.312500  0.000000     16.000000
 -0.312500 -0.437500  0.000000     16.000000
 -0.437500 -0.125000  0.000000     16.000000
 -0.437500  0.312500  0.000000     16.000000
  0.250000 -0.437500  0.000000     16.000000
 -0.312500  0.250000  0.000000     16.000000
  0.250000 -0.312500  0.000000     16.000000
 -0.312500  0.437500  0.000000     16.000000
  0.437500 -0.250000  0.000000     16.000000
 -0.312500  0.312500  0.000000     16.000000
  0.375000 -0.312500  0.000000     16.000000
 -0.312500  0.375000  0.000000     16.000000
  0.437500  0.437500  0.000000     16.000000
  0.000000  0.437500  0.000000     16.000000
 -0.437500 -0.000000  0.000000     16.000000
 -0.437500  0.437500  0.000000     16.000000
  0.125000 -0.437500  0.000000     16.000000
 -0.437500  0.125000  0.000000     16.000000
 
 Following cartesian coordinates:
            Coordinates               Weight
  0.011245  0.006492  0.000000     16.000000
  0.000000  0.012985  0.000000     16.000000
 -0.011245  0.006492  0.000000     16.000000
  0.033736 -0.006492  0.000000     16.000000
  0.022491  0.025970  0.000000     16.000000
 -0.011245  0.032462  0.000000     16.000000
  0.022491 -0.025970  0.000000     16.000000
 -0.011245 -0.032462  0.000000     16.000000
 -0.033736 -0.006492  0.000000     16.000000
  0.056227 -0.019477  0.000000     16.000000
  0.044981  0.038955  0.000000     16.000000
 -0.011245  0.058432  0.000000     16.000000
  0.044981 -0.038955  0.000000     16.000000
 -0.011245 -0.058432  0.000000     16.000000
 -0.056227 -0.019477  0.000000     16.000000
  0.078717 -0.032462  0.000000     16.000000
  0.067472  0.051940  0.000000     16.000000
 -0.011245  0.084402  0.000000     16.000000
  0.067472 -0.051940  0.000000     16.000000
 -0.011245 -0.084402  0.000000     16.000000
 -0.078717 -0.032462  0.000000     16.000000
 -0.078717  0.058432  0.000000     16.000000
  0.089963 -0.142835  0.000000     16.000000
 -0.011245  0.110372  0.000000     16.000000
  0.089963 -0.064925  0.000000     16.000000
 -0.011245  0.097387  0.000000     16.000000
  0.078717  0.058432  0.000000     16.000000
 -0.056227  0.045447  0.000000     16.000000
 -0.067472 -0.025970  0.000000     16.000000
 -0.011245 -0.071417  0.000000     16.000000
 -0.067472  0.025970  0.000000     16.000000
 -0.011245  0.071417  0.000000     16.000000
  0.056227  0.045447  0.000000     16.000000
 -0.033736  0.032462  0.000000     16.000000
 -0.044981 -0.012985  0.000000     16.000000
 -0.011245 -0.045447  0.000000     16.000000
 -0.044981  0.012985  0.000000     16.000000
 -0.011245  0.045447  0.000000     16.000000
  0.033736  0.032462  0.000000     16.000000
 -0.011245  0.019477  0.000000     16.000000
 -0.022491  0.000000  0.000000     16.000000
 -0.011245 -0.019477  0.000000     16.000000
  0.033736  0.019477  0.000000     16.000000
  0.000000  0.038955  0.000000     16.000000
 -0.033736  0.019477  0.000000     16.000000
  0.056227  0.006492  0.000000     16.000000
  0.022491  0.051940  0.000000     16.000000
 -0.033736  0.045447  0.000000     16.000000
  0.022491 -0.051940  0.000000     16.000000
 -0.033736 -0.045447  0.000000     16.000000
 -0.056227  0.006492  0.000000     16.000000
  0.078717 -0.006492  0.000000     16.000000
  0.044981  0.064925  0.000000     16.000000
 -0.033736  0.071417  0.000000     16.000000
  0.044981 -0.064925  0.000000     16.000000
 -0.033736 -0.071417  0.000000     16.000000
 -0.078717 -0.006492  0.000000     16.000000
 -0.078717  0.084402  0.000000     16.000000
  0.067472 -0.129850  0.000000     16.000000
 -0.033736  0.097387  0.000000     16.000000
  0.067472 -0.077910  0.000000     16.000000
 -0.033736  0.110372  0.000000     16.000000
  0.078717 -0.123357  0.000000     16.000000
 -0.056227  0.071417  0.000000     16.000000
  0.089963 -0.116865  0.000000     16.000000
 -0.033736  0.123357  0.000000     16.000000
  0.089963 -0.090895  0.000000     16.000000
 -0.033736  0.084402  0.000000     16.000000
  0.056227  0.071417  0.000000     16.000000
 -0.033736  0.058432  0.000000     16.000000
 -0.067472  0.000000  0.000000     16.000000
 -0.033736 -0.058432  0.000000     16.000000
  0.056227  0.032462  0.000000     16.000000
  0.000000  0.064925  0.000000     16.000000
 -0.056227  0.032462  0.000000     16.000000
  0.078717  0.019477  0.000000     16.000000
  0.022491  0.077910  0.000000     16.000000
 -0.056227  0.058432  0.000000     16.000000
  0.022491 -0.077910  0.000000     16.000000
 -0.056227 -0.058432  0.000000     16.000000
 -0.078717  0.019477  0.000000     16.000000
 -0.078717  0.110372  0.000000     16.000000
  0.044981 -0.116865  0.000000     16.000000
 -0.056227  0.084402  0.000000     16.000000
  0.044981 -0.090895  0.000000     16.000000
 -0.056227  0.123357  0.000000     16.000000
  0.078717 -0.097387  0.000000     16.000000
 -0.056227  0.097387  0.000000     16.000000
  0.067472 -0.103880  0.000000     16.000000
 -0.056227  0.110372  0.000000     16.000000
  0.078717  0.045447  0.000000     16.000000
  0.000000  0.090895  0.000000     16.000000
 -0.078717  0.045447  0.000000     16.000000
 -0.078717  0.136342  0.000000     16.000000
  0.022491 -0.103880  0.000000     16.000000
 -0.078717  0.071417  0.000000     16.000000
 


--------------------------------------------------------------------------------------------------------




 Dimension of arrays:
   k-points           NKPTS =     96   k-points in BZ     NKDIM =     96   number of bands    NBANDS=    100
   number of dos      NEDOS =    301   number of ions     NIONS =     21
   non local maximal  LDIM  =      6   non local SUM 2l+1 LMDIM =     18
   total plane-waves  NPLWV = 112896
   max r-space proj   IRMAX =   2252   max aug-charges    IRDMAX=  10104
   dimension x,y,z NGX =    28 NGY =   28 NGZ =  144
   dimension x,y,z NGXF=    56 NGYF=   56 NGZF=  288
   support grid    NGXF=    56 NGYF=   56 NGZF=  288
   ions per type =               1   1   4   1  14
   NGX,Y,Z   is equivalent  to a cutoff of   8.38,  8.38,  7.77 a.u.
   NGXF,Y,Z  is equivalent  to a cutoff of  16.75, 16.75, 15.54 a.u.

 SYSTEM =  0.1.Ir1.Au12                            
 POSCAR =  Au  C  H Ir Pt                          

 Startparameter for this run:
   NWRITE =      2    write-flag & timer
   PREC   = normal    normal or accurate (medium, high low for compatibility)
   ISTART =      0    job   : 0-new  1-cont  2-samecut
   ICHARG =      2    charge: 1-file 2-atom 10-const
   ISPIN  =      1    spin polarized calculation?
   LNONCOLLINEAR =      F non collinear calculations
   LSORBIT =      F    spin-orbit coupling
   INIWAV =      1    electr: 0-lowe 1-rand  2-diag
   LASPH  =      F    aspherical Exc in radial PAW
   METAGGA=      F    non-selfconsistent MetaGGA calc.

 Electronic Relaxation 1
   ENCUT  =  350.0 eV  25.72 Ry    5.07 a.u.   8.48  8.48 46.99*2*pi/ulx,y,z
   ENINI  =  350.0     initial cutoff
   ENAUG  =  644.9 eV  augmentation charge cutoff
   NELM   =   1000;   NELMIN=  5; NELMDL= -5     # of ELM steps 
   EDIFF  = 0.1E-04   stopping-criterion for ELM
   LREAL  =      T    real-space projection
   NLSPLINE    = F    spline interpolate recip. space projectors
   LCOMPAT=      F    compatible to vasp.4.4
   GGA_COMPAT  = T    GGA compatible to vasp.4.4-vasp.4.6
   LMAXPAW     = -100 max onsite density
   LMAXMIX     =    2 max onsite mixed and CHGCAR
   VOSKOWN=      0    Vosko Wilk Nusair interpolation
   ROPT   =   -0.00050  -0.00050  -0.00050  -0.00050
   ROPT   =   -0.00050
 Ionic relaxation
   EDIFFG = 0.1E-03   stopping-criterion for IOM
   NSW    =      0    number of steps for IOM
   NBLOCK =      1;   KBLOCK =      1    inner block; outer block 
   IBRION =     -1    ionic relax: 0-MD 1-quasi-New 2-CG
   NFREE  =      0    steps in history (QN), initial steepest desc. (CG)
   ISIF   =      2    stress and relaxation
   IWAVPR =     10    prediction:  0-non 1-charg 2-wave 3-comb
   ISYM   =      2    0-nonsym 1-usesym 2-fastsym
   LCORR  =      T    Harris-Foulkes like correction to forces

   POTIM  = 0.5000    time-step for ionic-motion
   TEIN   =    0.0    initial temperature
   TEBEG  =    0.0;   TEEND  =   0.0 temperature during run
   SMASS  =  -3.00    Nose mass-parameter (am)
   estimated Nose-frequenzy (Omega)   =  0.10E-29 period in steps =****** mass=  -0.706E-27a.u.
   SCALEE = 1.0000    scale energy and forces
   NPACO  =    256;   APACO  = 16.0  distance and # of slots for P.C.
   PSTRESS=    0.0 pullay stress

  Mass of Ions in am
   POMASS = 196.97 12.01  1.00192.22195.08
  Ionic Valenz
   ZVAL   =  11.00  4.00  1.00  9.00 10.00
  Atomic Wigner-Seitz radii
   RWIGS  =  -1.00 -1.00 -1.00 -1.00 -1.00
  virtual crystal weights 
   VCA    =   1.00  1.00  1.00  1.00  1.00
   NELECT =     168.0000    total number of electrons
   NUPDOWN=      -1.0000    fix difference up-down

 DOS related values:
   EMIN   =  10.00;   EMAX   =-10.00  energy-range for DOS
   EFERMI =   0.00
   ISMEAR =     1;   SIGMA  =   0.20  broadening in eV -4-tet -1-fermi 0-gaus

 Electronic relaxation 2 (details)
   IALGO  =     38    algorithm
   LDIAG  =      T    sub-space diagonalisation (order eigenvalues)
   LSUBROT=      F    optimize rotation matrix (better conditioning)
   TURBO    =      0    0=normal 1=particle mesh
   IRESTART =      0    0=no restart 2=restart with 2 vectors
   NREBOOT  =      0    no. of reboots
   NMIN     =      0    reboot dimension
   EREF     =   0.00    reference energy to select bands
   IMIX   =      4    mixing-type and parameters
     AMIX     =   0.40;   BMIX     =  1.00
     AMIX_MAG =   1.60;   BMIX_MAG =  1.00
     AMIN     =   0.10
     WC   =   100.;   INIMIX=   1;  MIXPRE=   1;  MAXMIX= -45

 Intra band minimization:
   WEIMIN = 0.0000     energy-eigenvalue tresh-hold
   EBREAK =  0.25E-07  absolut break condition
   DEPER  =   0.30     relativ break condition  

   TIME   =   0.40     timestep for ELM

  volume/ion in A,a.u.               =      39.24       264.83
  Fermi-wavevector in a.u.,A,eV,Ry     =   0.963488  1.820729 12.630418  0.928310
  Thomas-Fermi vector in A             =   2.093038
 
 Write flags
   LWAVE        =      F    write WAVECAR
   LDOWNSAMPLE  =      F    k-point downsampling of WAVECAR
   LCHARG       =      F    write CHGCAR
   LVTOT        =      F    write LOCPOT, total local potential
   LVHAR        =      F    write LOCPOT, Hartree potential only
   LELF         =      F    write electronic localiz. function (ELF)
   LORBIT       =      0    0 simple, 1 ext, 2 COOP (PROOUT), +10 PAW based schemes


 Dipole corrections
   LMONO  =      F    monopole corrections only (constant potential shift)
   LDIPOL =      F    correct potential (dipole corrections)
   IDIPOL =      3    1-x, 2-y, 3-z, 4-all directions 
   EPSILON=  1.0000000 bulk dielectric constant

 Exchange correlation treatment:
   GGA     =    --    GGA type
   LEXCH   =     8    internal setting for exchange type
   VOSKOWN=      0    Vosko Wilk Nusair interpolation
   LHFCALC =     F    Hartree Fock is set to
   LHFONE  =     F    Hartree Fock one center treatment
   AEXX    =    0.0000 exact exchange contribution

 Linear response parameters
   LEPSILON=     F    determine dielectric tensor
   LRPA    =     F    only Hartree local field effects (RPA)
   LNABLA  =     F    use nabla operator in PAW spheres
   LVEL    =     F    velocity operator in full k-point grid
   LINTERFAST=   F  fast interpolation
   KINTER  =     0    interpolate to denser k-point grid
   CSHIFT  =0.1000    complex shift for real part using Kramers Kronig
   OMEGAMAX=  -1.0    maximum frequency
   DEG_THRESHOLD= 0.2000000E-02 threshold for treating states as degnerate
   RTIME   =   -0.100 relaxation time in fs
  (WPLASMAI=    0.000 imaginary part of plasma frequency in eV, 0.658/RTIME)
   DFIELD  = 0.0000000 0.0000000 0.0000000 field for delta impulse in time
 
 Orbital magnetization related:
   ORBITALMAG=     F  switch on orbital magnetization
   LCHIMAG   =     F  perturbation theory with respect to B field
   DQ        =  0.001000  dq finite difference perturbation B field
   LLRAUG    =     F  two centre corrections for induced B field



--------------------------------------------------------------------------------------------------------


 Static calculation
 charge density and potential will be updated during run
 non-spin polarized calculation
 Variant of blocked Davidson
 Davidson routine will perform the subspace rotation
 perform sub-space diagonalisation
    after iterative eigenvector-optimisation
 modified Broyden-mixing scheme, WC =      100.0
 initial mixing is a Kerker type mixing with AMIX =  0.4000 and BMIX =      1.0000
 Hartree-type preconditioning will be used
 using additional bands           16
 real space projection scheme for non local part
 use partial core corrections
 calculate Harris-corrections to forces 
   (improved forces if not selfconsistent)
 use gradient corrections 
 use of overlap-Matrix (Vanderbilt PP)
 Methfessel and Paxton  Order N= 1 SIGMA  =   0.20


--------------------------------------------------------------------------------------------------------


  energy-cutoff  :      350.00
  volume of cell :      824.13
      direct lattice vectors                 reciprocal lattice vectors
     5.557859300  0.000000000  0.000000000     0.179925390 -0.103879972  0.000000000
     2.778929650  4.813247345  0.000000000     0.000000000  0.207759944  0.000000000
     0.000000000  0.000000000 30.806959674     0.000000000  0.000000000  0.032460198

  length of vectors
     5.557859300  5.557859300 30.806959674     0.207759944  0.207759944  0.032460198


 
 k-points in units of 2pi/SCALE and weight: 0.1.Ir1.Au12                            
   0.01124534  0.00649250  0.00000000       0.010
   0.00000000  0.01298500  0.00000000       0.010
  -0.01124534  0.00649250  0.00000000       0.010
   0.03373601 -0.00649250  0.00000000       0.010
   0.02249067  0.02596999  0.00000000       0.010
  -0.01124534  0.03246249  0.00000000       0.010
   0.02249067 -0.02596999  0.00000000       0.010
  -0.01124534 -0.03246249  0.00000000       0.010
  -0.03373601 -0.00649250  0.00000000       0.010
   0.05622668 -0.01947749  0.00000000       0.010
   0.04498135  0.03895499  0.00000000       0.010
  -0.01124534  0.05843248  0.00000000       0.010
   0.04498135 -0.03895499  0.00000000       0.010
  -0.01124534 -0.05843248  0.00000000       0.010
  -0.05622668 -0.01947749  0.00000000       0.010
   0.07871736 -0.03246249  0.00000000       0.010
   0.06747202  0.05193999  0.00000000       0.010
  -0.01124534  0.08440248  0.00000000       0.010
   0.06747202 -0.05193999  0.00000000       0.010
  -0.01124534 -0.08440248  0.00000000       0.010
  -0.07871736 -0.03246249  0.00000000       0.010
  -0.07871736  0.05843248  0.00000000       0.010
   0.08996269 -0.14283496  0.00000000       0.010
  -0.01124534  0.11037247  0.00000000       0.010
   0.08996269 -0.06492498  0.00000000       0.010
  -0.01124534  0.09738747  0.00000000       0.010
   0.07871736  0.05843248  0.00000000       0.010
  -0.05622668  0.04544749  0.00000000       0.010
  -0.06747202 -0.02596999  0.00000000       0.010
  -0.01124534 -0.07141748  0.00000000       0.010
  -0.06747202  0.02596999  0.00000000       0.010
  -0.01124534  0.07141748  0.00000000       0.010
   0.05622668  0.04544749  0.00000000       0.010
  -0.03373601  0.03246249  0.00000000       0.010
  -0.04498135 -0.01298500  0.00000000       0.010
  -0.01124534 -0.04544749  0.00000000       0.010
  -0.04498135  0.01298500  0.00000000       0.010
  -0.01124534  0.04544749  0.00000000       0.010
   0.03373601  0.03246249  0.00000000       0.010
  -0.01124534  0.01947749  0.00000000       0.010
  -0.02249067  0.00000000  0.00000000       0.010
  -0.01124534 -0.01947749  0.00000000       0.010
   0.03373601  0.01947749  0.00000000       0.010
   0.00000000  0.03895499  0.00000000       0.010
  -0.03373601  0.01947749  0.00000000       0.010
   0.05622668  0.00649250  0.00000000       0.010
   0.02249067  0.05193999  0.00000000       0.010
  -0.03373601  0.04544749  0.00000000       0.010
   0.02249067 -0.05193999  0.00000000       0.010
  -0.03373601 -0.04544749  0.00000000       0.010
  -0.05622668  0.00649250  0.00000000       0.010
   0.07871736 -0.00649250  0.00000000       0.010
   0.04498135  0.06492498  0.00000000       0.010
  -0.03373601  0.07141748  0.00000000       0.010
   0.04498135 -0.06492498  0.00000000       0.010
  -0.03373601 -0.07141748  0.00000000       0.010
  -0.07871736 -0.00649250  0.00000000       0.010
  -0.07871736  0.08440248  0.00000000       0.010
   0.06747202 -0.12984997  0.00000000       0.010
  -0.03373601  0.09738747  0.00000000       0.010
   0.06747202 -0.07790998  0.00000000       0.010
  -0.03373601  0.11037247  0.00000000       0.010
   0.07871736 -0.12335747  0.00000000       0.010
  -0.05622668  0.07141748  0.00000000       0.010
   0.08996269 -0.11686497  0.00000000       0.010
  -0.03373601  0.12335747  0.00000000       0.010
   0.08996269 -0.09089498  0.00000000       0.010
  -0.03373601  0.08440248  0.00000000       0.010
   0.05622668  0.07141748  0.00000000       0.010
  -0.03373601  0.05843248  0.00000000       0.010
  -0.06747202  0.00000000  0.00000000       0.010
  -0.03373601 -0.05843248  0.00000000       0.010
   0.05622668  0.03246249  0.00000000       0.010
   0.00000000  0.06492498  0.00000000       0.010
  -0.05622668  0.03246249  0.00000000       0.010
   0.07871736  0.01947749  0.00000000       0.010
   0.02249067  0.07790998  0.00000000       0.010
  -0.05622668  0.05843248  0.00000000       0.010
   0.02249067 -0.07790998  0.00000000       0.010
  -0.05622668 -0.05843248  0.00000000       0.010
  -0.07871736  0.01947749  0.00000000       0.010
  -0.07871736  0.11037247  0.00000000       0.010
   0.04498135 -0.11686497  0.00000000       0.010
  -0.05622668  0.08440248  0.00000000       0.010
   0.04498135 -0.09089498  0.00000000       0.010
  -0.05622668  0.12335747  0.00000000       0.010
   0.07871736 -0.09738747  0.00000000       0.010
  -0.05622668  0.09738747  0.00000000       0.010
   0.06747202 -0.10387997  0.00000000       0.010
  -0.05622668  0.11037247  0.00000000       0.010
   0.07871736  0.04544749  0.00000000       0.010
   0.00000000  0.09089498  0.00000000       0.010
  -0.07871736  0.04544749  0.00000000       0.010
  -0.07871736  0.13634246  0.00000000       0.010
   0.02249067 -0.10387997  0.00000000       0.010
  -0.07871736  0.07141748  0.00000000       0.010
 
 k-points in reciprocal lattice and weights: 0.1.Ir1.Au12                            
   0.06250000  0.06250000  0.00000000       0.010
   0.00000000  0.06250000  0.00000000       0.010
  -0.06250000  0.00000000  0.00000000       0.010
   0.18750000  0.06250000  0.00000000       0.010
   0.12500000  0.18750000  0.00000000       0.010
  -0.06250000  0.12500000  0.00000000       0.010
   0.12500000 -0.06250000  0.00000000       0.010
  -0.06250000 -0.18750000  0.00000000       0.010
  -0.18750000 -0.12500000  0.00000000       0.010
   0.31250000  0.06250000  0.00000000       0.010
   0.25000000  0.31250000  0.00000000       0.010
  -0.06250000  0.25000000  0.00000000       0.010
   0.25000000 -0.06250000  0.00000000       0.010
  -0.06250000 -0.31250000  0.00000000       0.010
  -0.31250000 -0.25000000  0.00000000       0.010
   0.43750000  0.06250000  0.00000000       0.010
   0.37500000  0.43750000  0.00000000       0.010
  -0.06250000  0.37500000  0.00000000       0.010
   0.37500000 -0.06250000  0.00000000       0.010
  -0.06250000 -0.43750000  0.00000000       0.010
  -0.43750000 -0.37500000  0.00000000       0.010
  -0.43750000  0.06250000  0.00000000       0.010
   0.50000000 -0.43750000  0.00000000       0.010
  -0.06250000  0.50000000  0.00000000       0.010
   0.50000000 -0.06250000  0.00000000       0.010
  -0.06250000  0.43750000  0.00000000       0.010
   0.43750000  0.50000000  0.00000000       0.010
  -0.31250000  0.06250000  0.00000000       0.010
  -0.37500000 -0.31250000  0.00000000       0.010
  -0.06250000 -0.37500000  0.00000000       0.010
  -0.37500000 -0.06250000  0.00000000       0.010
  -0.06250000  0.31250000  0.00000000       0.010
   0.31250000  0.37500000  0.00000000       0.010
  -0.18750000  0.06250000  0.00000000       0.010
  -0.25000000 -0.18750000  0.00000000       0.010
  -0.06250000 -0.25000000  0.00000000       0.010
  -0.25000000 -0.06250000  0.00000000       0.010
  -0.06250000  0.18750000  0.00000000       0.010
   0.18750000  0.25000000  0.00000000       0.010
  -0.06250000  0.06250000  0.00000000       0.010
  -0.12500000 -0.06250000  0.00000000       0.010
  -0.06250000 -0.12500000  0.00000000       0.010
   0.18750000  0.18750000  0.00000000       0.010
   0.00000000  0.18750000  0.00000000       0.010
  -0.18750000  0.00000000  0.00000000       0.010
   0.31250000  0.18750000  0.00000000       0.010
   0.12500000  0.31250000  0.00000000       0.010
  -0.18750000  0.12500000  0.00000000       0.010
   0.12500000 -0.18750000  0.00000000       0.010
  -0.18750000 -0.31250000  0.00000000       0.010
  -0.31250000 -0.12500000  0.00000000       0.010
   0.43750000  0.18750000  0.00000000       0.010
   0.25000000  0.43750000  0.00000000       0.010
  -0.18750000  0.25000000  0.00000000       0.010
   0.25000000 -0.18750000  0.00000000       0.010
  -0.18750000 -0.43750000  0.00000000       0.010
  -0.43750000 -0.25000000  0.00000000       0.010
  -0.43750000  0.18750000  0.00000000       0.010
   0.37500000 -0.43750000  0.00000000       0.010
  -0.18750000  0.37500000  0.00000000       0.010
   0.37500000 -0.18750000  0.00000000       0.010
  -0.18750000  0.43750000  0.00000000       0.010
   0.43750000 -0.37500000  0.00000000       0.010
  -0.31250000  0.18750000  0.00000000       0.010
   0.50000000 -0.31250000  0.00000000       0.010
  -0.18750000  0.50000000  0.00000000       0.010
   0.50000000 -0.18750000  0.00000000       0.010
  -0.18750000  0.31250000  0.00000000       0.010
   0.31250000  0.50000000  0.00000000       0.010
  -0.18750000  0.18750000  0.00000000       0.010
  -0.37500000 -0.18750000  0.00000000       0.010
  -0.18750000 -0.37500000  0.00000000       0.010
   0.31250000  0.31250000  0.00000000       0.010
   0.00000000  0.31250000  0.00000000       0.010
  -0.31250000  0.00000000  0.00000000       0.010
   0.43750000  0.31250000  0.00000000       0.010
   0.12500000  0.43750000  0.00000000       0.010
  -0.31250000  0.12500000  0.00000000       0.010
   0.12500000 -0.31250000  0.00000000       0.010
  -0.31250000 -0.43750000  0.00000000       0.010
  -0.43750000 -0.12500000  0.00000000       0.010
  -0.43750000  0.31250000  0.00000000       0.010
   0.25000000 -0.43750000  0.00000000       0.010
  -0.31250000  0.25000000  0.00000000       0.010
   0.25000000 -0.31250000  0.00000000       0.010
  -0.31250000  0.43750000  0.00000000       0.010
   0.43750000 -0.25000000  0.00000000       0.010
  -0.31250000  0.31250000  0.00000000       0.010
   0.37500000 -0.31250000  0.00000000       0.010
  -0.31250000  0.37500000  0.00000000       0.010
   0.43750000  0.43750000  0.00000000       0.010
   0.00000000  0.43750000  0.00000000       0.010
  -0.43750000 -0.00000000  0.00000000       0.010
  -0.43750000  0.43750000  0.00000000       0.010
   0.12500000 -0.43750000  0.00000000       0.010
  -0.43750000  0.12500000  0.00000000       0.010
 
 position of ions in fractional coordinates (direct lattice) 
   0.00402264  0.00213146  0.61444686
   0.99550926  0.03696884  0.72827728
   0.01634044  0.17407633  0.70461518
   0.81604879  0.16240739  0.74937920
   0.96285306  0.88264740  0.71087912
   0.18662699  0.92942696  0.74768094
   0.50028988  0.00002190  0.38905034
   0.50390390  0.50214636  0.61451928
   0.00405551  0.50215487  0.61457158
   0.50401127  0.00219456  0.61454012
   0.33604234  0.83485930  0.53906407
   0.00028423  0.00010053  0.38902611
   0.83608097  0.33483084  0.53905919
   0.66806793  0.66745004  0.46457432
   0.16808857  0.66740719  0.46450537
   0.66806591  0.16743176  0.46448880
   0.16807858  0.16742507  0.46451346
   0.50030535  0.50016294  0.38904898
   0.00019138  0.50013196  0.38905874
   0.33609318  0.33481458  0.53911068
   0.83607871  0.83485533  0.53906280
 
 position of ions in cartesian coordinates  (Angst):
   0.02828044  0.01025923 18.92923972
   5.63563422  0.17794019 22.43600876
   0.57456373  0.83787242 21.70705139
   4.98680310  0.78170695 23.08609490
   7.80421686  4.24840024 21.90002451
   3.62005867  4.47356184 23.03377650
   2.78060165  0.00010542 11.98545827
   4.19605639  2.41695465 18.93147080
   1.41799302  2.41699558 18.93308201
   2.80732224  0.01056294 18.93211274
   4.18769134  4.01838433 16.60692513
   0.00185911  0.00048388 11.98471168
   5.57729175  1.61162366 16.60677471
   5.56782426  3.21260213 14.31212247
   2.78889022  3.21239588 14.30999807
   4.17829742  0.80589046 14.30948785
   1.39941959  0.80585829 14.31024742
   4.17054439  2.40740796 11.98541613
   1.39089518  2.40725884 11.98571680
   2.79838480  1.61154540 16.60836084
   6.96681206  4.01836522 16.60688593
 


--------------------------------------------------------------------------------------------------------


 k-point  1 :   0.0625 0.0625 0.0000  plane waves:   12325
 k-point  2 :   0.0000 0.0625 0.0000  plane waves:   12325
 k-point  3 :  -0.0625 0.0000 0.0000  plane waves:   12325
 k-point  4 :   0.1875 0.0625 0.0000  plane waves:   12294
 k-point  5 :   0.1250 0.1875 0.0000  plane waves:   12294
 k-point  6 :  -0.0625 0.1250 0.0000  plane waves:   12294
 k-point  7 :   0.1250-0.0625 0.0000  plane waves:   12294
 k-point  8 :  -0.0625-0.1875 0.0000  plane waves:   12294
 k-point  9 :  -0.1875-0.1250 0.0000  plane waves:   12294
 k-point 10 :   0.3125 0.0625 0.0000  plane waves:   12263
 k-point 11 :   0.2500 0.3125 0.0000  plane waves:   12263
 k-point 12 :  -0.0625 0.2500 0.0000  plane waves:   12263
 k-point 13 :   0.2500-0.0625 0.0000  plane waves:   12263
 k-point 14 :  -0.0625-0.3125 0.0000  plane waves:   12263
 k-point 15 :  -0.3125-0.2500 0.0000  plane waves:   12263
 k-point 16 :   0.4375 0.0625 0.0000  plane waves:   12221
 k-point 17 :   0.3750 0.4375 0.0000  plane waves:   12221
 k-point 18 :  -0.0625 0.3750 0.0000  plane waves:   12221
 k-point 19 :   0.3750-0.0625 0.0000  plane waves:   12221
 k-point 20 :  -0.0625-0.4375 0.0000  plane waves:   12221
 k-point 21 :  -0.4375-0.3750 0.0000  plane waves:   12221
 k-point 22 :  -0.4375 0.0625 0.0000  plane waves:   12211
 k-point 23 :   0.5000-0.4375 0.0000  plane waves:   12211
 k-point 24 :  -0.0625 0.5000 0.0000  plane waves:   12211
 k-point 25 :   0.5000-0.0625 0.0000  plane waves:   12211
 k-point 26 :  -0.0625 0.4375 0.0000  plane waves:   12211
 k-point 27 :   0.4375 0.5000 0.0000  plane waves:   12211
 k-point 28 :  -0.3125 0.0625 0.0000  plane waves:   12242
 k-point 29 :  -0.3750-0.3125 0.0000  plane waves:   12242
 k-point 30 :  -0.0625-0.3750 0.0000  plane waves:   12242
 k-point 31 :  -0.3750-0.0625 0.0000  plane waves:   12242
 k-point 32 :  -0.0625 0.3125 0.0000  plane waves:   12242
 k-point 33 :   0.3125 0.3750 0.0000  plane waves:   12242
 k-point 34 :  -0.1875 0.0625 0.0000  plane waves:   12280
 k-point 35 :  -0.2500-0.1875 0.0000  plane waves:   12280
 k-point 36 :  -0.0625-0.2500 0.0000  plane waves:   12280
 k-point 37 :  -0.2500-0.0625 0.0000  plane waves:   12280
 k-point 38 :  -0.0625 0.1875 0.0000  plane waves:   12280
 k-point 39 :   0.1875 0.2500 0.0000  plane waves:   12280
 k-point 40 :  -0.0625 0.0625 0.0000  plane waves:   12329
 k-point 41 :  -0.1250-0.0625 0.0000  plane waves:   12329
 k-point 42 :  -0.0625-0.1250 0.0000  plane waves:   12329
 k-point 43 :   0.1875 0.1875 0.0000  plane waves:   12277
 k-point 44 :   0.0000 0.1875 0.0000  plane waves:   12277
 k-point 45 :  -0.1875 0.0000 0.0000  plane waves:   12277
 k-point 46 :   0.3125 0.1875 0.0000  plane waves:   12288
 k-point 47 :   0.1250 0.3125 0.0000  plane waves:   12288
 k-point 48 :  -0.1875 0.1250 0.0000  plane waves:   12288
 k-point 49 :   0.1250-0.1875 0.0000  plane waves:   12288
 k-point 50 :  -0.1875-0.3125 0.0000  plane waves:   12288
 k-point 51 :  -0.3125-0.1250 0.0000  plane waves:   12288
 k-point 52 :   0.4375 0.1875 0.0000  plane waves:   12234
 k-point 53 :   0.2500 0.4375 0.0000  plane waves:   12234
 k-point 54 :  -0.1875 0.2500 0.0000  plane waves:   12234
 k-point 55 :   0.2500-0.1875 0.0000  plane waves:   12234
 k-point 56 :  -0.1875-0.4375 0.0000  plane waves:   12234
 k-point 57 :  -0.4375-0.2500 0.0000  plane waves:   12234
 k-point 58 :  -0.4375 0.1875 0.0000  plane waves:   12216
 k-point 59 :   0.3750-0.4375 0.0000  plane waves:   12216
 k-point 60 :  -0.1875 0.3750 0.0000  plane waves:   12216
 k-point 61 :   0.3750-0.1875 0.0000  plane waves:   12216
 k-point 62 :  -0.1875 0.4375 0.0000  plane waves:   12216
 k-point 63 :   0.4375-0.3750 0.0000  plane waves:   12216
 k-point 64 :  -0.3125 0.1875 0.0000  plane waves:   12215
 k-point 65 :   0.5000-0.3125 0.0000  plane waves:   12215
 k-point 66 :  -0.1875 0.5000 0.0000  plane waves:   12215
 k-point 67 :   0.5000-0.1875 0.0000  plane waves:   12215
 k-point 68 :  -0.1875 0.3125 0.0000  plane waves:   12215
 k-point 69 :   0.3125 0.5000 0.0000  plane waves:   12215
 k-point 70 :  -0.1875 0.1875 0.0000  plane waves:   12289
 k-point 71 :  -0.3750-0.1875 0.0000  plane waves:   12289
 k-point 72 :  -0.1875-0.3750 0.0000  plane waves:   12289
 k-point 73 :   0.3125 0.3125 0.0000  plane waves:   12275
 k-point 74 :   0.0000 0.3125 0.0000  plane waves:   12275
 k-point 75 :  -0.3125 0.0000 0.0000  plane waves:   12275
 k-point 76 :   0.4375 0.3125 0.0000  plane waves:   12239
 k-point 77 :   0.1250 0.4375 0.0000  plane waves:   12239
 k-point 78 :  -0.3125 0.1250 0.0000  plane waves:   12239
 k-point 79 :   0.1250-0.3125 0.0000  plane waves:   12239
 k-point 80 :  -0.3125-0.4375 0.0000  plane waves:   12239
 k-point 81 :  -0.4375-0.1250 0.0000  plane waves:   12239
 k-point 82 :  -0.4375 0.3125 0.0000  plane waves:   12235
 k-point 83 :   0.2500-0.4375 0.0000  plane waves:   12235
 k-point 84 :  -0.3125 0.2500 0.0000  plane waves:   12235
 k-point 85 :   0.2500-0.3125 0.0000  plane waves:   12235
 k-point 86 :  -0.3125 0.4375 0.0000  plane waves:   12235
 k-point 87 :   0.4375-0.2500 0.0000  plane waves:   12235
 k-point 88 :  -0.3125 0.3125 0.0000  plane waves:   12232
 k-point 89 :   0.3750-0.3125 0.0000  plane waves:   12232
 k-point 90 :  -0.3125 0.3750 0.0000  plane waves:   12232
 k-point 91 :   0.4375 0.4375 0.0000  plane waves:   12200
 k-point 92 :   0.0000 0.4375 0.0000  plane waves:   12200
 k-point 93 :  -0.4375-0.0000 0.0000  plane waves:   12200
 k-point 94 :  -0.4375 0.4375 0.0000  plane waves:   12214
 k-point 95 :   0.1250-0.4375 0.0000  plane waves:   12214
 k-point 96 :  -0.4375 0.1250 0.0000  plane waves:   12214

 maximum and minimum number of plane-waves per node :      3101     2992

 maximum number of plane-waves:     12329
 maximum index in each direction: 
   IXMAX=    8   IYMAX=    8   IZMAX=   46
   IXMIN=   -8   IYMIN=   -8   IZMIN=  -46


 real space projection operators:
  total allocation   :       5080.73 KBytes
  max/ min on nodes  :       1273.55       1267.59


 parallel 3D FFT for wavefunctions:
    minimum data exchange during FFTs selected (reduces bandwidth)
 parallel 3D FFT for charge:
    minimum data exchange during FFTs selected (reduces bandwidth)


 total amount of memory used by VASP MPI-rank0   164311. kBytes
=======================================================================

   base      :      30000. kBytes
   nonlr-proj:       2358. kBytes
   fftplans  :       2967. kBytes
   grid      :       6321. kBytes
   one-center:         93. kBytes
   wavefun   :     122572. kBytes
 
     INWAV:  cpu time    0.0000: real time    0.0000
 Broyden mixing: mesh for mixing (old mesh)
   NGX = 17   NGY = 17   NGZ = 93
  (NGX  = 56   NGY  = 56   NGZ  =288)
  gives a total of  26877 points

 initial charge density was supplied:
 charge density of overlapping atoms calculated
 number of electron     168.0000000 magnetization 
 keeping initial charge density in first step


--------------------------------------------------------------------------------------------------------


 Maximum index for non-local projection operator          538
 Maximum index for augmentation-charges          723 (set IRDMAX)


--------------------------------------------------------------------------------------------------------


 First call to EWALD:  gamma=   0.189
 Maximum number of real-space cells 5x 5x 1
 Maximum number of reciprocal cells 2x 2x 8

    FEWALD:  cpu time    0.0013: real time    0.0013


--------------------------------------- Iteration      1(   1)  ---------------------------------------


    POTLOK:  cpu time    0.0263: real time    0.0321
    SETDIJ:  cpu time    0.0034: real time    0.0034
     EDDAV:  cpu time   13.9409: real time   13.9753
       DOS:  cpu time    0.0075: real time    0.0075
    --------------------------------------------
      LOOP:  cpu time   13.9781: real time   14.0183

 eigenvalue-minimisations  : 19264
 total energy-change (2. order) : 0.1019670E+04  (-0.5821439E+04)
 number of electron     168.0000000 magnetization 
 augmentation part      168.0000000 magnetization 

 Free energy of the ion-electron system (eV)
  ---------------------------------------------------
  alpha Z        PSCENC =       324.87461712
  Ewald energy   TEWEN  =     98791.91952147
  -Hartree energ DENC   =   -111081.00678530
  -exchange      EXHF   =         0.00000000
  -V(xc)+E(xc)   XCENC  =        68.48735517
  PAW double counting   =     11288.27476651   -10829.50941267
  entropy T*S    EENTRO =         0.00713127
  eigenvalues    EBANDS =       565.98585768
  atomic energy  EATOM  =     11890.63736546
  Solvation  Ediel_sol  =         0.00000000
  ---------------------------------------------------
  free energy    TOTEN  =      1019.67041670 eV

  energy without entropy =     1019.66328543  energy(sigma->0) =     1019.66803961


--------------------------------------------------------------------------------------------------------




--------------------------------------- Iteration      1(   2)  ---------------------------------------


     EDDAV:  cpu time   16.2371: real time   16.2786
       DOS:  cpu time    0.0079: real time    0.0080
    --------------------------------------------
      LOOP:  cpu time   16.2450: real time   16.2865

 eigenvalue-minimisations  : 23856
 total energy-change (2. order) :-0.1048822E+04  (-0.9739118E+03)
 number of electron     168.0000000 magnetization 
 augmentation part      168.0000000 magnetization 

 Free energy of the ion-electron system (eV)
  ---------------------------------------------------
  alpha Z        PSCENC =       324.87461712
  Ewald energy   TEWEN  =     98791.91952147
  -Hartree energ DENC   =   -111081.00678530
  -exchange      EXHF   =         0.00000000
  -V(xc)+E(xc)   XCENC  =        68.48735517
  PAW double counting   =     11288.27476651   -10829.50941267
  entropy T*S    EENTRO =        -0.00807410
  eigenvalues    EBANDS =      -482.82107599
  atomic energy  EATOM  =     11890.63736546
  Solvation  Ediel_sol  =         0.00000000
  ---------------------------------------------------
  free energy    TOTEN  =       -29.15172234 eV

  energy without entropy =      -29.14364824  energy(sigma->0) =      -29.14903097


--------------------------------------------------------------------------------------------------------




--------------------------------------- Iteration      1(   3)  ---------------------------------------


     EDDAV:  cpu time   15.6252: real time   15.6747
       DOS:  cpu time    0.0088: real time    0.0088
    --------------------------------------------
      LOOP:  cpu time   15.6341: real time   15.6835

 eigenvalue-minimisations  : 22984
 total energy-change (2. order) :-0.9209794E+02  (-0.8514593E+02)
 number of electron     168.0000000 magnetization 
 augmentation part      168.0000000 magnetization 

 Free energy of the ion-electron system (eV)
  ---------------------------------------------------
  alpha Z        PSCENC =       324.87461712
  Ewald energy   TEWEN  =     98791.91952147
  -Hartree energ DENC   =   -111081.00678530
  -exchange      EXHF   =         0.00000000
  -V(xc)+E(xc)   XCENC  =        68.48735517
  PAW double counting   =     11288.27476651   -10829.50941267
  entropy T*S    EENTRO =        -0.02081360
  eigenvalues    EBANDS =      -574.90627731
  atomic energy  EATOM  =     11890.63736546
  Solvation  Ediel_sol  =         0.00000000
  ---------------------------------------------------
  free energy    TOTEN  =      -121.24966316 eV

  energy without entropy =     -121.22884956  energy(sigma->0) =     -121.24272529


--------------------------------------------------------------------------------------------------------




--------------------------------------- Iteration      1(   4)  ---------------------------------------


     EDDAV:  cpu time   17.0082: real time   17.0592
       DOS:  cpu time    0.0088: real time    0.0088
    --------------------------------------------
      LOOP:  cpu time   17.0170: real time   17.0680

 eigenvalue-minimisations  : 25600
 total energy-change (2. order) :-0.4435528E+01  (-0.4221791E+01)
 number of electron     168.0000000 magnetization 
 augmentation part      168.0000000 magnetization 

 Free energy of the ion-electron system (eV)
  ---------------------------------------------------
  alpha Z        PSCENC =       324.87461712
  Ewald energy   TEWEN  =     98791.91952147
  -Hartree energ DENC   =   -111081.00678530
  -exchange      EXHF   =         0.00000000
  -V(xc)+E(xc)   XCENC  =        68.48735517
  PAW double counting   =     11288.27476651   -10829.50941267
  entropy T*S    EENTRO =        -0.02657416
  eigenvalues    EBANDS =      -579.33604430
  atomic energy  EATOM  =     11890.63736546
  Solvation  Ediel_sol  =         0.00000000
  ---------------------------------------------------
  free energy    TOTEN  =      -125.68519070 eV

  energy without entropy =     -125.65861654  energy(sigma->0) =     -125.67633265


--------------------------------------------------------------------------------------------------------




--------------------------------------- Iteration      1(   5)  ---------------------------------------


     EDDAV:  cpu time   17.7707: real time   17.8282
       DOS:  cpu time    0.0086: real time    0.0086
    CHARGE:  cpu time    0.7139: real time    0.7156
    MIXING:  cpu time    0.0010: real time    0.0010
    --------------------------------------------
      LOOP:  cpu time   18.4942: real time   18.5535

 eigenvalue-minimisations  : 26956
 total energy-change (2. order) :-0.1446126E+00  (-0.1434428E+00)
 number of electron     168.0000102 magnetization 
 augmentation part       47.1312607 magnetization 

 Broyden mixing:
  rms(total) = 0.42477E+01    rms(broyden)= 0.42476E+01
  rms(prec ) = 0.42875E+01
  weight for this iteration     100.00

 Free energy of the ion-electron system (eV)
  ---------------------------------------------------
  alpha Z        PSCENC =       324.87461712
  Ewald energy   TEWEN  =     98791.91952147
  -Hartree energ DENC   =   -111081.00678530
  -exchange      EXHF   =         0.00000000
  -V(xc)+E(xc)   XCENC  =        68.48735517
  PAW double counting   =     11288.27476651   -10829.50941267
  entropy T*S    EENTRO =        -0.02676404
  eigenvalues    EBANDS =      -579.48046706
  atomic energy  EATOM  =     11890.63736546
  Solvation  Ediel_sol  =         0.00000000
  ---------------------------------------------------
  free energy    TOTEN  =      -125.82980334 eV

  energy without entropy =     -125.80303931  energy(sigma->0) =     -125.82088200


--------------------------------------------------------------------------------------------------------




--------------------------------------- Iteration      1(   6)  ---------------------------------------


    POTLOK:  cpu time    0.0234: real time    0.0237
    SETDIJ:  cpu time    0.0033: real time    0.0033
     EDDAV:  cpu time   15.0245: real time   15.0619
       DOS:  cpu time    0.0095: real time    0.0096
    CHARGE:  cpu time    0.7728: real time    0.7746
    MIXING:  cpu time    0.0011: real time    0.0011
    --------------------------------------------
      LOOP:  cpu time   15.8346: real time   15.8742

 eigenvalue-minimisations  : 21900
 total energy-change (2. order) : 0.6904519E+01  (-0.2978245E+01)
 number of electron     168.0000095 magnetization 
 augmentation part       49.7338774 magnetization 

 Broyden mixing:
  rms(total) = 0.31213E+01    rms(broyden)= 0.31212E+01
  rms(prec ) = 0.32142E+01
  weight for this iteration     100.00

 eigenvalues of (default mixing * dielectric matrix)
  average eigenvalue GAMMA=   1.2591
  1.2591

 Free energy of the ion-electron system (eV)
  ---------------------------------------------------
  alpha Z        PSCENC =       324.87461712
  Ewald energy   TEWEN  =     98791.91952147
  -Hartree energ DENC   =   -110896.49905005
  -exchange      EXHF   =         0.00000000
  -V(xc)+E(xc)   XCENC  =        65.46205192
  PAW double counting   =     12547.83666949   -12112.57356858
  entropy T*S    EENTRO =        -0.02700590
  eigenvalues    EBANDS =      -730.55588532
  atomic energy  EATOM  =     11890.63736546
  Solvation  Ediel_sol  =         0.00000000
  ---------------------------------------------------
  free energy    TOTEN  =      -118.92528438 eV

  energy without entropy =     -118.89827848  energy(sigma->0) =     -118.91628241


--------------------------------------------------------------------------------------------------------




--------------------------------------- Iteration      1(   7)  ---------------------------------------


    POTLOK:  cpu time    0.0222: real time    0.0232
    SETDIJ:  cpu time    0.0033: real time    0.0033
     EDDAV:  cpu time   16.5140: real time   16.5573
       DOS:  cpu time    0.0094: real time    0.0094
    CHARGE:  cpu time    0.7175: real time    0.7192
    MIXING:  cpu time    0.0011: real time    0.0011
    --------------------------------------------
      LOOP:  cpu time   17.2676: real time   17.3136

 eigenvalue-minimisations  : 24828
 total energy-change (2. order) :-0.2321400E+02  (-0.9708680E+01)
 number of electron     168.0000114 magnetization 
 augmentation part       49.0193312 magnetization 

 Broyden mixing:
  rms(total) = 0.44132E+01    rms(broyden)= 0.44131E+01
  rms(prec ) = 0.48993E+01
  weight for this iteration     100.00

 eigenvalues of (default mixing * dielectric matrix)
  average eigenvalue GAMMA=   1.1469
  2.0298  0.2640

 Free energy of the ion-electron system (eV)
  ---------------------------------------------------
  alpha Z        PSCENC =       324.87461712
  Ewald energy   TEWEN  =     98791.91952147
  -Hartree energ DENC   =   -111064.23443741
  -exchange      EXHF   =         0.00000000
  -V(xc)+E(xc)   XCENC  =        64.99343683
  PAW double counting   =     13507.89195486   -13082.76399322
  entropy T*S    EENTRO =         0.00238800
  eigenvalues    EBANDS =      -575.46013678
  atomic energy  EATOM  =     11890.63736546
  Solvation  Ediel_sol  =         0.00000000
  ---------------------------------------------------
  free energy    TOTEN  =      -142.13928367 eV

  energy without entropy =     -142.14167167  energy(sigma->0) =     -142.14007967


--------------------------------------------------------------------------------------------------------




--------------------------------------- Iteration      1(   8)  ---------------------------------------


    POTLOK:  cpu time    0.0247: real time    0.0249
    SETDIJ:  cpu time    0.0033: real time    0.0033
     EDDAV:  cpu time   17.1466: real time   17.1896
       DOS:  cpu time    0.0099: real time    0.0099
    CHARGE:  cpu time    0.7439: real time    0.7458
    MIXING:  cpu time    0.0013: real time    0.0013
    --------------------------------------------
      LOOP:  cpu time   17.9298: real time   17.9748

 eigenvalue-minimisations  : 25972
 total energy-change (2. order) : 0.2259378E+02  (-0.3863762E+01)
 number of electron     168.0000111 magnetization 
 augmentation part       50.6459642 magnetization 

 Broyden mixing:
  rms(total) = 0.17217E+01    rms(broyden)= 0.17216E+01
  rms(prec ) = 0.18807E+01
  weight for this iteration     100.00

 eigenvalues of (default mixing * dielectric matrix)
  average eigenvalue GAMMA=   0.9685
  2.0560  0.5332  0.3163

 Free energy of the ion-electron system (eV)
  ---------------------------------------------------
  alpha Z        PSCENC =       324.87461712
  Ewald energy   TEWEN  =     98791.91952147
  -Hartree energ DENC   =   -110910.82110002
  -exchange      EXHF   =         0.00000000
  -V(xc)+E(xc)   XCENC  =        64.57700992
  PAW double counting   =     14434.25350652   -14019.98036669
  entropy T*S    EENTRO =        -0.03538884
  eigenvalues    EBANDS =      -694.97067095
  atomic energy  EATOM  =     11890.63736546
  Solvation  Ediel_sol  =         0.00000000
[...]
     21      -5.2167      2.00000
     22      -5.1118      2.00000
     23      -5.0467      2.00000
     24      -5.0396      2.00000
     25      -4.9688      2.00000
     26      -4.9153      2.00000
     27      -4.8374      2.00000
     28      -4.8227      2.00000
     29      -4.7708      2.00000
     30      -4.7339      2.00000
     31      -4.6794      2.00000
     32      -4.6371      2.00000
     33      -4.5498      2.00000
     34      -4.4622      2.00000
     35      -4.4058      2.00000
     36      -4.3343      2.00000
     37      -4.3012      2.00000
     38      -4.2053      2.00000
     39      -4.1701      2.00000
     40      -4.0622      2.00000
     41      -3.9877      2.00000
     42      -3.8970      2.00000
     43      -3.8515      2.00000
     44      -3.8368      2.00000
     45      -3.7758      2.00000
     46      -3.6844      2.00000
     47      -3.5812      2.00000
     48      -3.4871      2.00000
     49      -3.4419      2.00000
     50      -3.4139      2.00000
     51      -3.3807      2.00000
     52      -3.3490      2.00000
     53      -3.3306      2.00000
     54      -3.2318      2.00000
     55      -3.1134      2.00000
     56      -3.0161      2.00000
     57      -2.8656      2.00000
     58      -2.7392      2.00000
     59      -2.6891      2.00000
     60      -2.6495      2.00000
     61      -2.6288      2.00000
     62      -2.5570      2.00000
     63      -2.4421      2.00000
     64      -2.3372      2.00000
     65      -2.2760      2.00000
     66      -2.2374      2.00000
     67      -2.1528      2.00000
     68      -2.0762      2.00000
     69      -1.9656      2.00000
     70      -1.9088      2.00000
     71      -1.8543      2.00000
     72      -1.8010      2.00000
     73      -1.7377      2.00000
     74      -1.6679      2.00000
     75      -1.6186      2.00000
     76      -1.5503      2.00000
     77      -1.4566      2.00000
     78      -1.3478      2.00000
     79      -1.1859      2.00009
     80      -1.0256      2.00501
     81      -1.0074      2.00716
     82      -0.9141      2.03192
     83      -0.7424      2.02379
     84      -0.6480      1.65945
     85      -0.6059      1.36309
     86      -0.5352      0.77665
     87      -0.3915     -0.00429
     88      -0.3577     -0.05434
     89      -0.1848     -0.02274
     90      -0.1369     -0.01047
     91       0.4560     -0.00000
     92       0.7485     -0.00000
     93       1.6888     -0.00000
     94       1.7971     -0.00000
     95       1.8414     -0.00000
     96       2.5998     -0.00000
     97       3.4047     -0.00000
     98       3.6542     -0.00000
     99       4.1979     -0.00000
    100       4.2524     -0.00000

 k-point    96 :      -0.4375    0.1250    0.0000
  band No.  band energies     occupation 
      1     -12.2111      2.00000
      2      -8.0587      2.00000
      3      -8.0281      2.00000
      4      -7.0685      2.00000
      5      -6.9984      2.00000
      6      -6.5858      2.00000
      7      -6.3355      2.00000
      8      -6.2591      2.00000
      9      -6.2004      2.00000
     10      -6.1041      2.00000
     11      -6.0141      2.00000
     12      -5.9551      2.00000
     13      -5.9005      2.00000
     14      -5.8943      2.00000
     15      -5.7121      2.00000
     16      -5.5571      2.00000
     17      -5.4678      2.00000
     18      -5.4538      2.00000
     19      -5.4257      2.00000
     20      -5.2934      2.00000
     21      -5.2162      2.00000
     22      -5.1182      2.00000
     23      -5.0521      2.00000
     24      -5.0363      2.00000
     25      -4.9659      2.00000
     26      -4.9112      2.00000
     27      -4.8367      2.00000
     28      -4.8254      2.00000
     29      -4.7830      2.00000
     30      -4.7071      2.00000
     31      -4.6784      2.00000
     32      -4.6501      2.00000
     33      -4.5136      2.00000
     34      -4.4635      2.00000
     35      -4.4049      2.00000
     36      -4.3557      2.00000
     37      -4.3039      2.00000
     38      -4.2157      2.00000
     39      -4.1762      2.00000
     40      -4.0705      2.00000
     41      -3.9683      2.00000
     42      -3.8903      2.00000
     43      -3.8729      2.00000
     44      -3.8371      2.00000
     45      -3.7906      2.00000
     46      -3.6793      2.00000
     47      -3.5758      2.00000
     48      -3.4654      2.00000
     49      -3.4525      2.00000
     50      -3.4203      2.00000
     51      -3.3836      2.00000
     52      -3.3534      2.00000
     53      -3.3183      2.00000
     54      -3.2035      2.00000
     55      -3.1193      2.00000
     56      -3.0486      2.00000
     57      -2.8909      2.00000
     58      -2.7354      2.00000
     59      -2.6861      2.00000
     60      -2.6256      2.00000
     61      -2.6113      2.00000
     62      -2.5593      2.00000
     63      -2.4349      2.00000
     64      -2.3436      2.00000
     65      -2.2828      2.00000
     66      -2.2395      2.00000
     67      -2.1417      2.00000
     68      -2.0965      2.00000
     69      -1.9728      2.00000
     70      -1.9325      2.00000
     71      -1.8577      2.00000
     72      -1.7839      2.00000
     73      -1.7175      2.00000
     74      -1.6561      2.00000
     75      -1.6215      2.00000
     76      -1.5459      2.00000
     77      -1.4513      2.00000
     78      -1.3146      2.00000
     79      -1.2033      2.00006
     80      -1.1078      2.00078
     81      -1.0371      2.00396
     82      -0.8396      2.06435
     83      -0.7238      1.98513
     84      -0.6501      1.67231
     85      -0.6165      1.44411
     86      -0.5167      0.62858
     87      -0.4339      0.12579
     88      -0.3336     -0.06852
     89      -0.1812     -0.02157
     90      -0.1450     -0.01206
     91       0.4552     -0.00000
     92       0.7492     -0.00000
     93       1.6903     -0.00000
     94       1.7564     -0.00000
     95       1.8800     -0.00000
     96       2.6043     -0.00000
     97       3.3828     -0.00000
     98       3.6629     -0.00000
     99       4.1636     -0.00000
    100       4.2683     -0.00000


--------------------------------------------------------------------------------------------------------


 soft charge-density along one line, spin component           1
         0         1         2         3         4         5         6         7         8         9
 total charge-density along one line
 
 pseudopotential strength for first ion, spin component:           1
 -7.977   0.000   0.000  -0.006   0.000  -8.125   0.000   0.000
  0.000  -7.900   0.000   0.000  -0.005   0.000  -8.050   0.000
  0.000   0.000  -7.891   0.000   0.000   0.000   0.000  -8.041
 -0.006   0.000   0.000  -7.900   0.000  -0.006   0.000   0.000
  0.000  -0.005   0.000   0.000  -7.977   0.000  -0.005   0.000
 -8.125   0.000   0.000  -0.006   0.000  -8.257   0.000   0.000
  0.000  -8.050   0.000   0.000  -0.005   0.000  -8.183   0.000
  0.000   0.000  -8.041   0.000   0.000   0.000   0.000  -8.174
 -0.006   0.000   0.000  -8.050   0.000  -0.006   0.000   0.000
  0.000  -0.005   0.000   0.000  -8.125   0.000  -0.005   0.000
  0.000   0.000  -0.025  -0.000   0.000   0.000   0.000  -0.024
  0.000   0.000  -0.036  -0.000   0.000   0.000   0.000  -0.035
  0.000   0.002   0.000   0.000  -0.000   0.000   0.001   0.000
  0.000   0.000   0.004   0.000   0.000   0.000   0.000   0.004
 -0.000   0.000  -0.000   0.002   0.000  -0.000   0.000  -0.000
  0.000   0.000  -0.000   0.000  -0.001   0.000  -0.000  -0.000
  0.000   0.000   0.003   0.000   0.000   0.000   0.000   0.002
 -0.000   0.000  -0.000   0.000   0.000  -0.000   0.000  -0.000
 total augmentation occupancy for first ion, spin component:           1
  4.820   0.004   0.013  -0.037   0.003  -2.994  -0.003  -0.010  -0.051  -0.003  -0.001   0.001  -0.001  -0.002   0.049   0.000
  0.004   4.892   0.031   0.017  -0.005  -0.003  -2.610  -0.024  -0.013  -0.072  -0.006   0.002   0.217  -0.002  -0.002  -0.010
  0.013   0.031   5.642   0.011  -0.001  -0.010  -0.024  -3.432  -0.007   0.001   0.819  -0.051   0.002   0.351  -0.001   0.000
 -0.037   0.017   0.011   4.885   0.000  -0.049  -0.013  -0.007  -2.602   0.000   0.003   0.001  -0.002  -0.001   0.218   0.000
  0.003  -0.005  -0.001   0.000   4.815  -0.003  -0.074   0.001   0.000  -2.990   0.000  -0.003   0.050  -0.000  -0.000  -0.002
 -2.994  -0.003  -0.010  -0.049  -0.003   3.029   0.002   0.007   0.116   0.002   0.001  -0.001   0.001   0.002  -0.046  -0.000
 -0.003  -2.610  -0.024  -0.013  -0.074   0.002   2.291   0.018   0.009   0.133   0.003  -0.001  -0.203   0.002   0.002   0.009
 -0.010  -0.024  -3.432  -0.007   0.001   0.007   0.018   3.168   0.004  -0.001  -0.751   0.064  -0.001  -0.357   0.001  -0.000
 -0.051  -0.013  -0.007  -2.602   0.000   0.116   0.009   0.004   2.282  -0.000  -0.003  -0.001   0.002   0.001  -0.203  -0.000
 -0.003  -0.072   0.001   0.000  -2.990   0.002   0.133  -0.001  -0.000   3.026  -0.001   0.002  -0.046   0.000   0.000   0.002
 -0.001  -0.006   0.819   0.003   0.000   0.001   0.003  -0.751  -0.003  -0.001   2.554  -0.586   0.000  -0.169   0.001  -0.000
  0.001   0.002  -0.051   0.001  -0.003  -0.001  -0.001   0.064  -0.001   0.002  -0.586   0.175  -0.000   0.074  -0.000   0.000
 -0.001   0.217   0.002  -0.002   0.050   0.001  -0.203  -0.001   0.002  -0.046   0.000  -0.000   0.235   0.000  -0.000  -0.007
 -0.002  -0.002   0.351  -0.001  -0.000   0.002   0.002  -0.357   0.001   0.000  -0.169   0.074   0.000   0.132  -0.000  -0.000
  0.049  -0.002  -0.001   0.218  -0.000  -0.046   0.002   0.001  -0.203   0.000   0.001  -0.000  -0.000  -0.000   0.235  -0.000
  0.000  -0.010   0.000   0.000  -0.002  -0.000   0.009  -0.000  -0.000   0.002  -0.000   0.000  -0.007  -0.000  -0.000   0.000
  0.000   0.000  -0.006   0.000   0.000  -0.000  -0.000   0.010  -0.000  -0.000   0.009  -0.003  -0.000  -0.004   0.000   0.000
 -0.002   0.000  -0.000  -0.010   0.000   0.002  -0.000   0.000   0.009  -0.000  -0.000   0.000  -0.000   0.000  -0.007   0.000


------------------------ aborting loop because EDIFF is reached ----------------------------------------



 DIPCOR: dipole corrections for dipol
 direction  3 min pos    21,
 dipolmoment           0.000000      0.000000     -0.077694 electrons x Angstroem
 Tr[quadrupol]      -943.959027

 energy correction for charged system         0.000000 eV
 dipol+quadrupol energy correction            0.000663 eV
 added-field ion interaction          0.000000 eV  (added to PSCEN)

 
  *************** adding dipol energy to TOTEN NOW **************** 
    CHARGE:  cpu time    0.7173: real time    0.7190
    FORLOC:  cpu time    0.0070: real time    0.0070
    FORNL :  cpu time    3.1159: real time    3.1236
    STRESS:  cpu time    9.3803: real time    9.4026
    FORCOR:  cpu time    0.0288: real time    0.0289
    FORHAR:  cpu time    0.0119: real time    0.0119
    MIXING:  cpu time    0.0038: real time    0.0038
    OFIELD:  cpu time    0.0000: real time    0.0001

  FORCE on cell =-STRESS in cart. coord.  units (eV):
  Direction    XX          YY          ZZ          XY          YZ          ZX
  --------------------------------------------------------------------------------------
  Alpha Z   324.87462   324.87462   324.87462
  Ewald  107675.34937107678.88720************    -2.42189     0.06842    -2.71900
  Hartree110131.81137110133.33742************    -0.40126     0.57338    -0.55898
  E(xc)    -736.96521  -736.94119  -741.50712    -0.01304    -0.02070    -0.01891
  Local  ************************222950.63862     2.28191    -1.15372     2.53570
  n-local    43.10122    43.23776    25.91334    -0.14611    -0.10135    -0.19501
  augment   834.71173   834.47186   862.41374     0.20225     0.23108     0.30657
  Kinetic  2383.45436  2382.95733  2454.25165     0.46158     0.43505     0.58319
  Fock        0.00000     0.00000     0.00000     0.00000     0.00000     0.00000
  -------------------------------------------------------------------------------------
  Total     -12.24165   -12.26402    -1.17358    -0.03657     0.03216    -0.06644
  in kB     -23.79885   -23.84234    -2.28155    -0.07109     0.06252    -0.12917
  external pressure =      -16.64 kB  Pullay stress =        0.00 kB


 VOLUME and BASIS-vectors are now :
 -----------------------------------------------------------------------------
  energy-cutoff  :      350.00
  volume of cell :      824.13
      direct lattice vectors                 reciprocal lattice vectors
     5.557859300  0.000000000  0.000000000     0.179925390 -0.103879972  0.000000000
     2.778929650  4.813247345  0.000000000     0.000000000  0.207759944  0.000000000
     0.000000000  0.000000000 30.806959674     0.000000000  0.000000000  0.032460198

  length of vectors
     5.557859300  5.557859300 30.806959674     0.207759944  0.207759944  0.032460198


 FORCES acting on ions
    electron-ion (+dipol)            ewald-force                    non-local-force                 convergence-correction
 -----------------------------------------------------------------------------------------------
   0.828E+00 0.231E+01 -.284E+04   -.827E+00 -.233E+01 0.284E+04   -.950E-02 0.347E-01 0.678E+00   -.135E-03 -.368E-03 0.503E-02
   -.108E-01 -.469E-01 -.119E+04   0.212E-01 0.562E-01 0.119E+04   -.949E-02 -.128E-02 0.334E-01   0.352E-05 0.549E-05 -.293E-02
   -.224E+02 -.298E+02 -.284E+03   0.249E+02 0.330E+02 0.281E+03   -.243E+01 -.323E+01 0.355E+01   -.402E-05 -.160E-04 -.804E-03
   0.291E+02 -.270E+02 -.310E+03   -.323E+02 0.300E+02 0.313E+03   0.321E+01 -.299E+01 -.320E+01   0.666E-05 -.707E-05 -.536E-03
   0.275E+02 0.334E+02 -.288E+03   -.305E+02 -.370E+02 0.285E+03   0.300E+01 0.365E+01 0.262E+01   0.408E-05 0.170E-04 -.784E-03
   -.342E+02 0.232E+02 -.309E+03   0.379E+02 -.257E+02 0.312E+03   -.378E+01 0.256E+01 -.295E+01   -.500E-05 0.750E-05 -.550E-03
   -.133E+00 -.165E+00 0.264E+04   0.118E+00 0.178E+00 -.264E+04   0.163E-01 0.323E-01 -.137E+00   -.781E-05 0.190E-03 0.167E-02
   0.862E+00 -.942E+00 -.261E+04   -.802E+00 0.973E+00 0.261E+04   -.445E-01 -.442E-01 0.102E+01   -.598E-03 -.987E-04 0.427E-02
   -.734E+00 -.168E+01 -.261E+04   0.709E+00 0.171E+01 0.261E+04   0.772E-02 -.471E-01 0.954E+00   0.599E-03 0.365E-04 0.411E-02
   -.368E+00 0.829E+00 -.261E+04   0.398E+00 -.875E+00 0.261E+04   -.289E-01 0.578E-01 0.100E+01   0.117E-03 0.380E-03 0.408E-02
   -.543E+01 0.295E+01 -.727E+03   0.556E+01 -.304E+01 0.727E+03   0.186E-01 0.748E-04 0.359E+00   -.912E-04 0.112E-03 0.178E-01
   -.846E-01 -.705E-01 0.294E+04   0.688E-01 0.298E-01 -.294E+04   0.191E-01 0.595E-01 -.685E+00   0.889E-05 -.182E-03 0.209E-02
   0.671E-01 -.605E+01 -.728E+03   -.613E-01 0.620E+01 0.727E+03   -.846E-02 0.150E-01 0.466E+00   -.238E-04 -.171E-03 0.176E-01
   0.142E-02 -.535E+01 0.113E+04   -.694E-02 0.556E+01 -.113E+04   0.129E-02 -.440E-01 -.245E+00   0.218E-03 -.851E-04 0.118E-01
   -.493E-01 0.362E+00 0.113E+04   0.430E-01 -.354E+00 -.113E+04   0.424E-02 -.656E-02 -.355E+00   -.220E-03 -.454E-03 0.123E-01
   0.494E+01 0.247E+01 0.113E+04   -.511E+01 -.258E+01 -.113E+04   0.300E-01 0.261E-01 -.309E+00   -.318E-03 0.147E-03 0.124E-01
   -.501E+01 0.250E+01 0.113E+04   0.517E+01 -.261E+01 -.113E+04   -.219E-01 0.270E-01 -.316E+00   0.316E-03 0.399E-03 0.122E-01
   -.355E-01 0.484E-01 0.294E+04   -.361E-01 -.426E-01 -.293E+04   0.685E-01 -.403E-01 -.717E+00   -.358E-03 -.156E-04 0.188E-02
   -.195E+00 0.689E-02 0.294E+04   0.229E+00 -.641E-02 -.293E+04   -.285E-01 -.391E-01 -.713E+00   0.360E-03 -.264E-04 0.181E-02
   -.250E-02 0.229E+00 -.733E+03   0.454E-02 -.215E+00 0.733E+03   -.133E-02 -.192E-01 0.265E+00   0.193E-04 -.776E-04 0.178E-01
   0.545E+01 0.290E+01 -.727E+03   -.556E+01 -.298E+01 0.727E+03   -.293E-01 0.237E-02 0.360E+00   0.900E-04 0.136E-03 0.178E-01
 -----------------------------------------------------------------------------------------------
   0.147E-01 -.103E-01 -.185E+01   -.604E-13 0.138E-13 -.182E-11   -.157E-01 0.590E-02 0.168E+01   -.189E-04 -.704E-04 0.139E+00
 
 
 POSITION                                       TOTAL-FORCE (eV/Angst)
 -----------------------------------------------------------------------------------
      0.02828      0.01026     18.92924        -0.008077      0.012945      1.034295
      5.63563      0.17794     22.43601         0.000886      0.008246      0.024032
      0.57456      0.83787     21.70705        -0.008468     -0.011857      0.041716
      4.98680      0.78171     23.08609         0.002784     -0.003808      0.031422
      7.80422      4.24840     21.90002         0.007230      0.008984      0.025202
      3.62006      4.47356     23.03378        -0.003243      0.001642      0.031758
      2.78060      0.00011     11.98546         0.000738      0.046022      1.111849
      4.19606      2.41695     18.93147         0.015232     -0.013209     -0.130884
      1.41799      2.41700     18.93308        -0.016267     -0.012057     -0.128018
      2.80732      0.01056     18.93211         0.001622      0.011901     -0.122634
      4.18769      4.01838     16.60693         0.145044     -0.080568     -0.157306
      0.00186      0.00048     11.98471         0.003329      0.018821     -0.104617
      5.57729      1.61162     16.60677        -0.002678      0.163307     -0.365662
      5.56782      3.21260     14.31212        -0.003970      0.164413     -0.543873
      2.78889      3.21240     14.31000        -0.002237      0.000857      0.067757
      4.17830      0.80589     14.30949        -0.141117     -0.079329     -0.264457
      1.39942      0.80586     14.31025         0.141863     -0.082353     -0.271041
      4.17054      2.40741     11.98542        -0.003502     -0.034300     -0.117308
      1.39090      2.40726     11.98572         0.006543     -0.038455     -0.117354
      2.79838      1.61155     16.60836         0.000778     -0.005431      0.103957
      6.96681      4.01837     16.60689        -0.136491     -0.075773     -0.148833
 -----------------------------------------------------------------------------------
    total drift:                               -0.001024     -0.004489     -0.030524


--------------------------------------------------------------------------------------------------------



  FREE ENERGIE OF THE ION-ELECTRON SYSTEM (eV)
  ---------------------------------------------------
  free  energy   TOTEN  =      -116.00694940 eV

  energy  without entropy=     -115.96665779  energy(sigma->0) =     -115.99351887
 


--------------------------------------------------------------------------------------------------------


    POTLOK:  cpu time    0.0261: real time    0.0265


--------------------------------------------------------------------------------------------------------


     LOOP+:  cpu time  543.1681: real time  544.7169
    4ORBIT:  cpu time    0.0000: real time    0.0000

 total amount of memory used by VASP MPI-rank0   164311. kBytes
=======================================================================

   base      :      30000. kBytes
   nonlr-proj:       2358. kBytes
   fftplans  :       2967. kBytes
   grid      :       6321. kBytes
   one-center:         93. kBytes
   wavefun   :     122572. kBytes
 
  
  
 General timing and accounting informations for this job:
 ========================================================
  
                  Total CPU time used (sec):      550.866
                            User time (sec):      549.263
                          System time (sec):        1.603
                         Elapsed time (sec):      552.593
  
                   Maximum memory used (kb):      213944.
                   Average memory used (kb):           0.
  
                          Minor page faults:        76968
                          Major page faults:            0
                 Voluntary context switches:         1107
