       N       E                     dE             d eps       ncg     rms          rms(c)
DAV:   1     0.977109581523E+03    0.97711E+03   -0.56598E+04  3864   0.103E+03
DAV:   2    -0.179741894801E+02   -0.99508E+03   -0.91592E+03  4712   0.261E+02
DAV:   3    -0.950891359864E+02   -0.77115E+02   -0.69445E+02  4608   0.706E+01
DAV:   4    -0.982439889480E+02   -0.31549E+01   -0.30470E+01  5208   0.152E+01
DAV:   5    -0.983236735953E+02   -0.79685E-01   -0.79400E-01  5000   0.233E+00    0.429E+01
DAV:   6    -0.946539883955E+02    0.36697E+01   -0.19482E+01  4376   0.197E+01    0.322E+01
DAV:   7    -0.137895099459E+03   -0.43241E+02   -0.12701E+02  5824   0.758E+01    0.550E+01
DAV:   8    -0.117761878855E+03    0.20133E+02   -0.48800E+01  5456   0.451E+01    0.428E+01
DAV:   9    -0.107010326269E+03    0.10752E+02   -0.43844E+01  6224   0.446E+01    0.291E+01
DAV:  10    -0.937839839676E+02    0.13226E+02   -0.24849E+01  5152   0.322E+01    0.136E+01
DAV:  11    -0.922303026130E+02    0.15537E+01   -0.10003E+01  5632   0.158E+01    0.675E+00
DAV:  12    -0.922007620462E+02    0.29541E-01   -0.80763E-01  4384   0.410E+00    0.532E+00
DAV:  13    -0.921161362168E+02    0.84626E-01   -0.47878E-01  4232   0.374E+00    0.347E+00
DAV:  14    -0.921827156917E+02   -0.66579E-01   -0.25701E-01  5208   0.251E+00    0.370E+00
DAV:  15    -0.920897837696E+02    0.92932E-01   -0.11233E-01  4984   0.178E+00    0.184E+00
DAV:  16    -0.920875295932E+02    0.22542E-02   -0.10998E-01  5224   0.154E+00    0.121E+00
DAV:  17    -0.920770429789E+02    0.10487E-01   -0.41036E-02  5344   0.110E+00    0.766E-01
DAV:  18    -0.920756332992E+02    0.14097E-02   -0.35807E-03  4464   0.323E-01    0.674E-01
DAV:  19    -0.920724760030E+02    0.31573E-02   -0.25979E-03  4856   0.254E-01    0.394E-01
DAV:  20    -0.920715692706E+02    0.90673E-03   -0.12002E-03  5016   0.155E-01    0.255E-01
DAV:  21    -0.920712247815E+02    0.34449E-03   -0.36260E-04  4392   0.883E-02    0.152E-01
DAV:  22    -0.920710961604E+02    0.12862E-03   -0.37862E-04  4976   0.856E-02    0.532E-02
DAV:  23    -0.920711224316E+02   -0.26271E-04   -0.95892E-05  4000   0.408E-02    0.445E-02
DAV:  24    -0.920711390098E+02   -0.16578E-04   -0.11013E-05  2328   0.185E-02    0.358E-02
DAV:  25    -0.920711666848E+02   -0.27675E-04   -0.10453E-05  2336   0.154E-02    0.214E-02
DAV:  26    -0.920711822878E+02   -0.15603E-04   -0.62337E-06  2312   0.104E-02    0.813E-03
DAV:  27    -0.920712243185E+02   -0.42031E-04   -0.40023E-06  2384   0.659E-03    0.332E-03
DAV:  28    -0.920712452301E+02   -0.20912E-04   -0.19846E-06  2400   0.454E-03    0.467E-03
DAV:  29    -0.920712646988E+02   -0.19469E-04   -0.13918E-06  2352   0.335E-03    0.690E-03
DAV:  30    -0.920712728128E+02   -0.81140E-05   -0.12005E-06  2344   0.335E-03
   1 F= -.92071248E+02 E0= -.92059727E+02  d E =-.345647E-01
