       N       E                     dE             d eps       ncg     rms          rms(c)
DAV:   1     0.103113424020E+04    0.10311E+04   -0.58323E+04 19288   0.103E+03
DAV:   2    -0.272426789217E+02   -0.10584E+04   -0.98385E+03 23888   0.260E+02
DAV:   3    -0.119290183564E+03   -0.92048E+02   -0.85056E+02 22840   0.759E+01
DAV:   4    -0.123894253363E+03   -0.46041E+01   -0.43789E+01 25840   0.172E+01
DAV:   5    -0.124037476807E+03   -0.14322E+00   -0.14188E+00 26100   0.298E+00    0.433E+01
DAV:   6    -0.117877486193E+03    0.61600E+01   -0.33220E+01 22720   0.242E+01    0.331E+01
DAV:   7    -0.147141138900E+03   -0.29264E+02   -0.14050E+02 25608   0.657E+01    0.482E+01
DAV:   8    -0.134426474737E+03    0.12715E+02   -0.64094E+01 26720   0.491E+01    0.376E+01
DAV:   9    -0.124933023626E+03    0.94935E+01   -0.69631E+01 30628   0.497E+01    0.252E+01
DAV:  10    -0.123089201312E+03    0.18438E+01   -0.47686E+01 27180   0.385E+01    0.267E+01
DAV:  11    -0.115778076967E+03    0.73111E+01   -0.13126E+01 28756   0.206E+01    0.948E+00
DAV:  12    -0.115917881482E+03   -0.13980E+00   -0.75299E+00 28756   0.147E+01    0.105E+01
DAV:  13    -0.114917715998E+03    0.10002E+01   -0.26267E+00 24992   0.781E+00    0.374E+00
DAV:  14    -0.114895260131E+03    0.22456E-01   -0.49274E-01 26296   0.312E+00    0.267E+00
DAV:  15    -0.114867336040E+03    0.27924E-01   -0.14227E-01 21408   0.188E+00    0.201E+00
DAV:  16    -0.114848379931E+03    0.18956E-01   -0.67530E-02 27640   0.110E+00    0.102E+00
DAV:  17    -0.114840408369E+03    0.79716E-02   -0.45414E-02 22784   0.989E-01    0.657E-01
DAV:  18    -0.114839973240E+03    0.43513E-03   -0.23911E-02 24928   0.619E-01    0.808E-01
DAV:  19    -0.114836362053E+03    0.36112E-02   -0.21993E-02 25416   0.556E-01    0.353E-01
DAV:  20    -0.114835954818E+03    0.40723E-03   -0.33855E-03 22304   0.260E-01    0.335E-01
DAV:  21    -0.114834704810E+03    0.12500E-02   -0.14528E-03 22120   0.168E-01    0.222E-01
DAV:  22    -0.114834388301E+03    0.31651E-03   -0.46651E-03 25364   0.228E-01    0.218E-01
DAV:  23    -0.114834223833E+03    0.16447E-03   -0.87837E-04 23012   0.111E-01    0.103E-01
DAV:  24    -0.114834302256E+03   -0.78423E-04   -0.18209E-04 21296   0.566E-02    0.683E-02
DAV:  25    -0.114834461554E+03   -0.15930E-03   -0.13481E-04 20760   0.506E-02    0.495E-02
DAV:  26    -0.114834757729E+03   -0.29618E-03   -0.23385E-04 22028   0.582E-02    0.723E-02
DAV:  27    -0.114834784191E+03   -0.26462E-04   -0.46774E-05 13880   0.290E-02    0.489E-02
DAV:  28    -0.114834909770E+03   -0.12558E-03   -0.55477E-05 14232   0.330E-02    0.201E-02
DAV:  29    -0.114835080389E+03   -0.17062E-03   -0.27481E-05 14284   0.188E-02    0.286E-02
DAV:  30    -0.114835243705E+03   -0.16332E-03   -0.40458E-05 13340   0.256E-02    0.202E-02
DAV:  31    -0.114835366327E+03   -0.12262E-03   -0.16899E-05 13368   0.127E-02    0.217E-02
DAV:  32    -0.114835379552E+03   -0.13225E-04   -0.54318E-06 12392   0.960E-03    0.123E-02
DAV:  33    -0.114835444517E+03   -0.64965E-04   -0.38843E-06 12424   0.796E-03    0.135E-02
DAV:  34    -0.114835462932E+03   -0.18414E-04   -0.24780E-06 12376   0.679E-03    0.788E-03
DAV:  35    -0.114835479373E+03   -0.16441E-04   -0.14004E-06 12060   0.357E-03    0.396E-03
DAV:  36    -0.114835493106E+03   -0.13733E-04   -0.62070E-07 12012   0.273E-03    0.235E-03
DAV:  37    -0.114835503129E+03   -0.10023E-04   -0.34718E-07 11740   0.192E-03    0.163E-03
DAV:  38    -0.114835509659E+03   -0.65299E-05   -0.29154E-07 11688   0.195E-03
   1 F= -.11481806E+03 E0= -.11480891E+03  d E =-.274347E-01
