       N       E                     dE             d eps       ncg     rms          rms(c)
DAV:   1     0.102205455792E+04    0.10221E+04   -0.58241E+04 19272   0.103E+03
DAV:   2    -0.290112412238E+02   -0.10511E+04   -0.97587E+03 23848   0.259E+02
DAV:   3    -0.121210760444E+03   -0.92200E+02   -0.85237E+02 22960   0.759E+01
DAV:   4    -0.125666618312E+03   -0.44559E+01   -0.42431E+01 25624   0.169E+01
DAV:   5    -0.125812489356E+03   -0.14587E+00   -0.14465E+00 26852   0.300E+00    0.426E+01
DAV:   6    -0.118844679883E+03    0.69678E+01   -0.30028E+01 21980   0.206E+01    0.312E+01
DAV:   7    -0.142399578824E+03   -0.23555E+02   -0.99469E+01 23640   0.561E+01    0.442E+01
DAV:   8    -0.120475497389E+03    0.21924E+02   -0.41373E+01 25076   0.323E+01    0.195E+01
DAV:   9    -0.123925471392E+03   -0.34500E+01   -0.53085E+01 22708   0.321E+01    0.254E+01
DAV:  10    -0.124754582874E+03   -0.82911E+00   -0.29346E+01 27532   0.348E+01    0.279E+01
DAV:  11    -0.118334665061E+03    0.64199E+01   -0.26077E+01 33256   0.276E+01    0.152E+01
DAV:  12    -0.116065559532E+03    0.22691E+01   -0.75972E+00 22836   0.125E+01    0.450E+00
DAV:  13    -0.116002633823E+03    0.62926E-01   -0.74399E-01 21512   0.353E+00    0.259E+00
DAV:  14    -0.115995523107E+03    0.71107E-02   -0.12906E-01 22224   0.145E+00    0.198E+00
DAV:  15    -0.115999974561E+03   -0.44515E-02   -0.36200E-02 23340   0.908E-01    0.162E+00
DAV:  16    -0.115998069679E+03    0.19049E-02   -0.12082E-01 27796   0.154E+00    0.151E+00
DAV:  17    -0.115984942097E+03    0.13128E-01   -0.76658E-02 28216   0.119E+00    0.557E-01
DAV:  18    -0.115982551825E+03    0.23903E-02   -0.84807E-03 26784   0.418E-01    0.400E-01
DAV:  19    -0.115982408802E+03    0.14302E-03   -0.29119E-03 24236   0.263E-01    0.375E-01
DAV:  20    -0.115982479914E+03   -0.71113E-04   -0.23174E-03 21640   0.216E-01    0.255E-01
DAV:  21    -0.115982361040E+03    0.11887E-03   -0.59220E-04 21892   0.100E-01    0.224E-01
DAV:  22    -0.115982217898E+03    0.14314E-03   -0.22212E-04 21868   0.689E-02    0.177E-01
DAV:  23    -0.115982127434E+03    0.90464E-04   -0.35043E-04 24680   0.882E-02    0.930E-02
DAV:  24    -0.115982192843E+03   -0.65409E-04   -0.32625E-04 23164   0.777E-02    0.350E-02
DAV:  25    -0.115982278340E+03   -0.85498E-04   -0.79623E-05 18588   0.360E-02    0.291E-02
DAV:  26    -0.115982321898E+03   -0.43557E-04   -0.18669E-05 10952   0.197E-02    0.245E-02
DAV:  27    -0.115982384552E+03   -0.62655E-04   -0.10645E-05 12160   0.143E-02    0.215E-02
DAV:  28    -0.115982552334E+03   -0.16778E-03   -0.22225E-05 13168   0.165E-02    0.149E-02
DAV:  29    -0.115982703514E+03   -0.15118E-03   -0.16419E-05 13648   0.139E-02    0.224E-02
DAV:  30    -0.115982763260E+03   -0.59746E-04   -0.48957E-06 11312   0.892E-03    0.208E-02
DAV:  31    -0.115982847987E+03   -0.84727E-04   -0.95228E-06 12016   0.116E-02    0.721E-03
DAV:  32    -0.115982879221E+03   -0.31234E-04   -0.20469E-06 11248   0.562E-03    0.701E-03
DAV:  33    -0.115982891118E+03   -0.11897E-04   -0.78720E-07 10576   0.300E-03    0.528E-03
DAV:  34    -0.115982906529E+03   -0.15411E-04   -0.19614E-06 10936   0.482E-03    0.221E-03
DAV:  35    -0.115982910715E+03   -0.41857E-05   -0.31979E-07 10236   0.208E-03
   1 F= -.11598114E+03 E0= -.11596928E+03  d E =-.355909E-01
