       N       E                     dE             d eps       ncg     rms          rms(c)
DAV:   1     0.102966024836E+04    0.10297E+04   -0.58323E+04 19288   0.103E+03
DAV:   2    -0.283917234712E+02   -0.10581E+04   -0.98225E+03 23880   0.260E+02
DAV:   3    -0.120564966056E+03   -0.92173E+02   -0.85190E+02 22896   0.761E+01
DAV:   4    -0.125086275708E+03   -0.45213E+01   -0.42941E+01 25808   0.170E+01
DAV:   5    -0.125228213551E+03   -0.14194E+00   -0.14053E+00 26556   0.295E+00    0.431E+01
DAV:   6    -0.118464597674E+03    0.67636E+01   -0.31793E+01 22732   0.216E+01    0.319E+01
DAV:   7    -0.144130948133E+03   -0.25666E+02   -0.11719E+02 23084   0.620E+01    0.452E+01
DAV:   8    -0.126561287712E+03    0.17570E+02   -0.50549E+01 24016   0.368E+01    0.299E+01
DAV:   9    -0.127907503668E+03   -0.13462E+01   -0.65370E+01 28508   0.407E+01    0.278E+01
DAV:  10    -0.122025209486E+03    0.58823E+01   -0.47157E+01 26600   0.374E+01    0.236E+01
DAV:  11    -0.116517748655E+03    0.55075E+01   -0.10169E+01 28600   0.188E+01    0.102E+01
DAV:  12    -0.116538504981E+03   -0.20756E-01   -0.63434E+00 28184   0.115E+01    0.992E+00
DAV:  13    -0.115840433679E+03    0.69807E+00   -0.20102E+00 27420   0.683E+00    0.464E+00
DAV:  14    -0.115703607777E+03    0.13683E+00   -0.10356E+00 21204   0.469E+00    0.327E+00
DAV:  15    -0.115700619195E+03    0.29886E-02   -0.66262E-02 22388   0.943E-01    0.289E+00
DAV:  16    -0.115686074038E+03    0.14545E-01   -0.19911E-02 22924   0.598E-01    0.228E+00
DAV:  17    -0.115659047296E+03    0.27027E-01   -0.98774E-02 22868   0.140E+00    0.877E-01
DAV:  18    -0.115652226933E+03    0.68204E-02   -0.33931E-02 21748   0.808E-01    0.471E-01
DAV:  19    -0.115650839101E+03    0.13878E-02   -0.53764E-03 23340   0.363E-01    0.420E-01
DAV:  20    -0.115650791400E+03    0.47700E-04   -0.64363E-03 23616   0.325E-01    0.406E-01
DAV:  21    -0.115650399213E+03    0.39219E-03   -0.17309E-03 21248   0.191E-01    0.327E-01
DAV:  22    -0.115649446078E+03    0.95313E-03   -0.31709E-03 25620   0.225E-01    0.147E-01
DAV:  23    -0.115649377528E+03    0.68550E-04   -0.41894E-04 21616   0.856E-02    0.118E-01
DAV:  24    -0.115649346146E+03    0.31382E-04   -0.13958E-04 20560   0.497E-02    0.796E-02
DAV:  25    -0.115649417716E+03   -0.71569E-04   -0.22540E-04 22204   0.614E-02    0.401E-02
DAV:  26    -0.115649536257E+03   -0.11854E-03   -0.13242E-04 21036   0.469E-02    0.422E-02
DAV:  27    -0.115649676792E+03   -0.14054E-03   -0.65570E-05 17608   0.310E-02    0.369E-02
DAV:  28    -0.115649780116E+03   -0.10332E-03   -0.18714E-05 14032   0.182E-02    0.260E-02
DAV:  29    -0.115649914656E+03   -0.13454E-03   -0.17822E-05 12828   0.182E-02    0.177E-02
DAV:  30    -0.115650019217E+03   -0.10456E-03   -0.10408E-05 12520   0.120E-02    0.189E-02
DAV:  31    -0.115650136666E+03   -0.11745E-03   -0.81588E-06 12724   0.108E-02    0.158E-02
DAV:  32    -0.115650182335E+03   -0.45669E-04   -0.46775E-06 12296   0.843E-03    0.807E-03
DAV:  33    -0.115650207630E+03   -0.25295E-04   -0.15927E-06 11576   0.456E-03    0.580E-03
DAV:  34    -0.115650234230E+03   -0.26600E-04   -0.11712E-06 11932   0.383E-03    0.393E-03
DAV:  35    -0.115650253017E+03   -0.18787E-04   -0.11194E-06 11700   0.394E-03    0.402E-03
DAV:  36    -0.115650257660E+03   -0.46428E-05   -0.34275E-07 10828   0.201E-03
   1 F= -.11563958E+03 E0= -.11562762E+03  d E =-.358871E-01
