       N       E                     dE             d eps       ncg     rms          rms(c)
DAV:   1     0.102880221636E+04    0.10288E+04   -0.58318E+04 19288   0.103E+03
DAV:   2    -0.297646070993E+02   -0.10586E+04   -0.98366E+03 23992   0.259E+02
DAV:   3    -0.121393854527E+03   -0.91629E+02   -0.84790E+02 23032   0.759E+01
DAV:   4    -0.125842094941E+03   -0.44482E+01   -0.42320E+01 25656   0.170E+01
DAV:   5    -0.125980131215E+03   -0.13804E+00   -0.13689E+00 26464   0.295E+00    0.431E+01
DAV:   6    -0.118363580959E+03    0.76166E+01   -0.35022E+01 23292   0.234E+01    0.318E+01
DAV:   7    -0.143358255264E+03   -0.24995E+02   -0.11010E+02 28060   0.575E+01    0.465E+01
DAV:   8    -0.124210861052E+03    0.19147E+02   -0.42229E+01 30396   0.436E+01    0.252E+01
DAV:   9    -0.127839326224E+03   -0.36285E+01   -0.49326E+01 29844   0.458E+01    0.289E+01
DAV:  10    -0.123792803661E+03    0.40465E+01   -0.43233E+01 31184   0.471E+01    0.238E+01
DAV:  11    -0.116667507264E+03    0.71253E+01   -0.16681E+01 26808   0.160E+01    0.944E+00
DAV:  12    -0.116853447046E+03   -0.18594E+00   -0.54073E+00 27872   0.106E+01    0.111E+01
DAV:  13    -0.115892679997E+03    0.96077E+00   -0.37068E+00 27708   0.686E+00    0.530E+00
DAV:  14    -0.115760584450E+03    0.13210E+00   -0.17736E+00 21092   0.478E+00    0.340E+00
DAV:  15    -0.115757915804E+03    0.26686E-02   -0.17764E-01 21868   0.183E+00    0.298E+00
DAV:  16    -0.115702538485E+03    0.55377E-01   -0.10092E-01 24156   0.143E+00    0.176E+00
DAV:  17    -0.115686116154E+03    0.16422E-01   -0.98888E-02 21936   0.134E+00    0.109E+00
DAV:  18    -0.115681455008E+03    0.46611E-02   -0.37511E-02 22064   0.871E-01    0.751E-01
DAV:  19    -0.115679308084E+03    0.21469E-02   -0.90345E-03 21432   0.422E-01    0.584E-01
DAV:  20    -0.115678972194E+03    0.33589E-03   -0.49344E-03 21744   0.319E-01    0.500E-01
DAV:  21    -0.115678425467E+03    0.54673E-03   -0.16617E-03 21048   0.184E-01    0.422E-01
DAV:  22    -0.115676697899E+03    0.17276E-02   -0.33451E-03 26776   0.231E-01    0.216E-01
DAV:  23    -0.115676372855E+03    0.32504E-03   -0.68153E-04 24576   0.111E-01    0.134E-01
DAV:  24    -0.115676334842E+03    0.38013E-04   -0.12617E-04 22500   0.497E-02    0.109E-01
DAV:  25    -0.115676378107E+03   -0.43265E-04   -0.17030E-04 22144   0.548E-02    0.670E-02
DAV:  26    -0.115676512452E+03   -0.13435E-03   -0.14563E-04 21472   0.560E-02    0.421E-02
DAV:  27    -0.115676619711E+03   -0.10726E-03   -0.10174E-04 18012   0.423E-02    0.389E-02
DAV:  28    -0.115676675577E+03   -0.55865E-04   -0.32511E-05 11988   0.240E-02    0.154E-02
DAV:  29    -0.115676902222E+03   -0.22665E-03   -0.32673E-05 14340   0.238E-02    0.260E-02
DAV:  30    -0.115677059531E+03   -0.15731E-03   -0.12160E-05 12556   0.124E-02    0.238E-02
DAV:  31    -0.115677137001E+03   -0.77470E-04   -0.52643E-06 12320   0.891E-03    0.225E-02
DAV:  32    -0.115677198482E+03   -0.61481E-04   -0.10024E-05 12236   0.136E-02    0.997E-03
DAV:  33    -0.115677262103E+03   -0.63621E-04   -0.48246E-06 12376   0.635E-03    0.533E-03
DAV:  34    -0.115677283318E+03   -0.21215E-04   -0.16207E-06 11644   0.430E-03    0.289E-03
DAV:  35    -0.115677306742E+03   -0.23425E-04   -0.99791E-07 12092   0.343E-03    0.354E-03
DAV:  36    -0.115677314812E+03   -0.80698E-05   -0.41132E-07 11460   0.255E-03
   1 F= -.11567158E+03 E0= -.11565921E+03  d E =-.371121E-01
