       N       E                     dE             d eps       ncg     rms          rms(c)
DAV:   1     0.102492269041E+04    0.10249E+04   -0.58277E+04 19288   0.103E+03
DAV:   2    -0.290720254709E+02   -0.10540E+04   -0.97887E+03 23944   0.259E+02
DAV:   3    -0.120878119522E+03   -0.91806E+02   -0.84818E+02 22888   0.758E+01
DAV:   4    -0.125311964092E+03   -0.44338E+01   -0.42364E+01 25712   0.169E+01
DAV:   5    -0.125451555768E+03   -0.13959E+00   -0.13832E+00 26828   0.296E+00    0.429E+01
DAV:   6    -0.120046273473E+03    0.54053E+01   -0.33781E+01 22816   0.237E+01    0.353E+01
DAV:   7    -0.172265217890E+03   -0.52219E+02   -0.23138E+02 29044   0.811E+01    0.582E+01
DAV:   8    -0.145800557933E+03    0.26465E+02   -0.10036E+02 27604   0.441E+01    0.455E+01
DAV:   9    -0.135979289622E+03    0.98213E+01   -0.60486E+01 33144   0.469E+01    0.328E+01
DAV:  10    -0.119535472665E+03    0.16444E+02   -0.46156E+01 27036   0.367E+01    0.195E+01
DAV:  11    -0.117486526160E+03    0.20489E+01   -0.25921E+01 27940   0.193E+01    0.152E+01
DAV:  12    -0.116023887572E+03    0.14626E+01   -0.92896E+00 26784   0.116E+01    0.679E+00
DAV:  13    -0.115778010326E+03    0.24588E+00   -0.61781E-01 28048   0.377E+00    0.498E+00
DAV:  14    -0.115701625063E+03    0.76385E-01   -0.12104E-01 23672   0.172E+00    0.456E+00
DAV:  15    -0.115665188598E+03    0.36436E-01   -0.90126E-02 24688   0.123E+00    0.361E+00
DAV:  16    -0.115676786974E+03   -0.11598E-01   -0.24020E-01 20956   0.239E+00    0.206E+00
DAV:  17    -0.115625749907E+03    0.51037E-01   -0.12451E-01 21784   0.168E+00    0.945E-01
DAV:  18    -0.115617625249E+03    0.81247E-02   -0.21105E-02 22420   0.634E-01    0.625E-01
DAV:  19    -0.115613507106E+03    0.41181E-02   -0.84488E-03 23264   0.415E-01    0.489E-01
DAV:  20    -0.115610962186E+03    0.25449E-02   -0.54628E-03 23704   0.308E-01    0.329E-01
DAV:  21    -0.115610187034E+03    0.77515E-03   -0.32050E-03 21916   0.254E-01    0.246E-01
DAV:  22    -0.115610049271E+03    0.13776E-03   -0.14929E-03 23940   0.173E-01    0.299E-01
DAV:  23    -0.115609105787E+03    0.94348E-03   -0.31965E-03 26648   0.240E-01    0.781E-02
DAV:  24    -0.115609128230E+03   -0.22443E-04   -0.41901E-04 21556   0.762E-02    0.537E-02
DAV:  25    -0.115609134943E+03   -0.67133E-05   -0.10478E-04 19668   0.449E-02    0.301E-02
DAV:  26    -0.115609217926E+03   -0.82983E-04   -0.85856E-05 19112   0.354E-02    0.297E-02
DAV:  27    -0.115609323737E+03   -0.10581E-03   -0.54088E-05 17440   0.283E-02    0.199E-02
DAV:  28    -0.115609430936E+03   -0.10720E-03   -0.37643E-05 14160   0.221E-02    0.194E-02
DAV:  29    -0.115609586951E+03   -0.15601E-03   -0.56970E-05 13740   0.305E-02    0.322E-02
DAV:  30    -0.115609651251E+03   -0.64300E-04   -0.14700E-05 11436   0.160E-02    0.181E-02
DAV:  31    -0.115609729600E+03   -0.78349E-04   -0.47071E-06 11900   0.911E-03    0.194E-02
DAV:  32    -0.115609803553E+03   -0.73953E-04   -0.10792E-05 12380   0.124E-02    0.594E-03
DAV:  33    -0.115609853731E+03   -0.50178E-04   -0.37078E-06 11804   0.660E-03    0.424E-03
DAV:  34    -0.115609875080E+03   -0.21349E-04   -0.16873E-06 11256   0.525E-03    0.652E-03
DAV:  35    -0.115609886263E+03   -0.11183E-04   -0.58551E-07 10728   0.261E-03    0.560E-03
DAV:  36    -0.115609897840E+03   -0.11577E-04   -0.67407E-07 10928   0.268E-03    0.393E-03
DAV:  37    -0.115609907277E+03   -0.94362E-05   -0.32343E-07 10996   0.195E-03
   1 F= -.11560680E+03 E0= -.11560188E+03  d E =-.147603E-01
