       N       E                     dE             d eps       ncg     rms          rms(c)
DAV:   1     0.104073374026E+04    0.10407E+04   -0.74117E+04  5824   0.883E+02
DAV:   2    -0.600728624639E+02   -0.11008E+04   -0.10309E+04  6432   0.237E+02
DAV:   3    -0.104198990697E+03   -0.44126E+02   -0.41713E+02  6424   0.458E+01
DAV:   4    -0.105009729994E+03   -0.81074E+00   -0.80973E+00  7248   0.635E+00
DAV:   5    -0.105029034973E+03   -0.19305E-01   -0.19304E-01  6944   0.924E-01    0.284E+01
DAV:   6    -0.100442908271E+03    0.45861E+01   -0.13773E+01  6280   0.118E+01    0.142E+01
DAV:   7    -0.102386945990E+03   -0.19440E+01   -0.53961E+00  6312   0.121E+01    0.167E+01
DAV:   8    -0.102223206435E+03    0.16374E+00   -0.17224E+01  6184   0.170E+01    0.142E+01
DAV:   9    -0.101880001540E+03    0.34320E+00   -0.48830E+00  6280   0.138E+01    0.125E+01
DAV:  10    -0.100488913817E+03    0.13911E+01   -0.30081E+00  6184   0.101E+01    0.672E+00
DAV:  11    -0.100651837914E+03   -0.16292E+00   -0.25881E+00  6120   0.438E+00    0.849E+00
DAV:  12    -0.100080313823E+03    0.57152E+00   -0.15266E+00  6224   0.418E+00    0.138E+00
DAV:  13    -0.100073391942E+03    0.69219E-02   -0.56053E-02  6032   0.993E-01    0.864E-01
DAV:  14    -0.100071695768E+03    0.16962E-02   -0.66505E-03  6200   0.384E-01    0.653E-01
DAV:  15    -0.100065838608E+03    0.58572E-02   -0.68458E-03  6224   0.419E-01    0.250E-01
DAV:  16    -0.100065230544E+03    0.60806E-03   -0.19900E-03  6184   0.212E-01    0.181E-01
DAV:  17    -0.100064748196E+03    0.48235E-03   -0.70978E-04  5072   0.115E-01    0.547E-02
DAV:  18    -0.100064447928E+03    0.30027E-03   -0.25410E-04  4768   0.612E-02    0.680E-02
DAV:  19    -0.100064632643E+03   -0.18471E-03   -0.19863E-04  4088   0.498E-02    0.532E-02
DAV:  20    -0.100065029936E+03   -0.39729E-03   -0.60611E-05  3920   0.303E-02    0.482E-02
DAV:  21    -0.100065457427E+03   -0.42749E-03   -0.83229E-05  3968   0.272E-02    0.178E-02
DAV:  22    -0.100065684784E+03   -0.22736E-03   -0.12490E-05  3944   0.129E-02    0.151E-02
DAV:  23    -0.100065944512E+03   -0.25973E-03   -0.12095E-05  3856   0.995E-03    0.619E-03
DAV:  24    -0.100066088956E+03   -0.14444E-03   -0.35045E-06  3936   0.408E-03    0.589E-03
DAV:  25    -0.100066153836E+03   -0.64879E-04   -0.15785E-06  3768   0.330E-03
   1 F= -.10006615E+03 E0= -.99908992E+02  d E =-.100066E+03
       N       E                     dE             d eps       ncg     rms          rms(c)
DAV:   1    -0.100066522153E+03   -0.43320E-03   -0.21657E-01  6024   0.958E-01    0.622E-02
DAV:   2    -0.100066909854E+03   -0.38770E-03   -0.31875E-03  6080   0.161E-01    0.157E-01
DAV:   3    -0.100066812067E+03    0.97787E-04   -0.13960E-03  3744   0.123E-01    0.104E-01
DAV:   4    -0.100066818022E+03   -0.59557E-05   -0.70796E-04  3744   0.987E-02    0.992E-02
DAV:   5    -0.100066781738E+03    0.36284E-04   -0.14827E-04  3608   0.659E-02
   2 F= -.10006678E+03 E0= -.99909959E+02  d E =-.627902E-03
       N       E                     dE             d eps       ncg     rms          rms(c)
DAV:   1    -0.100066840787E+03   -0.22765E-04   -0.12264E-01  5792   0.722E-01    0.695E-02
DAV:   2    -0.100070975411E+03   -0.41346E-02   -0.15156E-02  6824   0.387E-01    0.745E-01
DAV:   3    -0.100066925977E+03    0.40494E-02   -0.15808E-02  5832   0.402E-01    0.107E-01
DAV:   4    -0.100067018332E+03   -0.92354E-04   -0.27424E-04  3896   0.758E-02    0.907E-02
DAV:   5    -0.100067011693E+03    0.66391E-05   -0.22057E-04  3688   0.817E-02
   3 F= -.10006701E+03 E0= -.99910444E+02  d E =-.857857E-03
