 vasp.5.4.4.18Apr17-6-g9f103f2a35 (build Apr 28 2017 10:53:45) complex          
  
 executed on             LinuxIFC date 2019.01.02  16:18:50
 running on   32 total cores
 distrk:  each k-point on   32 cores,    1 groups
 distr:  one band on NCORES_PER_BAND=   8 cores,    4 groups


--------------------------------------------------------------------------------------------------------


 INCAR:
 POTCAR:    PAW_PBE Pd 04Jan2005                  
 POTCAR:    PAW_PBE Pd 04Jan2005                  
   VRHFIN =Pd : s1 d9                                                           
   LEXCH  = PE                                                                  
   EATOM  =   809.7530 eV,   59.5152 Ry                                         
                                                                                
   TITEL  = PAW_PBE Pd 04Jan2005                                                
   LULTRA =        F    use ultrasoft PP ?                                      
   IUNSCR =        1    unscreen: 0-lin 1-nonlin 2-no                           
   RPACOR =    2.000    partial core radius                                     
   POMASS =  106.420; ZVAL   =   10.000    mass and valenz                      
   RCORE  =    2.600    outmost cutoff radius                                   
   RWIGS  =    2.710; RWIGS  =    1.434    wigner-seitz radius (au A)           
   ENMAX  =  250.925; ENMIN  =  188.194 eV                                      
   ICORE  =        3    local potential                                         
   LCOR   =        T    correct aug charges                                     
   LPAW   =        T    paw PP                                                  
   EAUG   =  416.230                                                            
   DEXC   =    0.000                                                            
   RMAX   =    2.653    core radius for proj-oper                               
   RAUG   =    1.300    factor for augmentation sphere                          
   RDEP   =    2.734    radius for radial grids                                 
   RDEPT  =    2.103    core radius for aug-charge                              
                                                                                
   Atomic configuration                                                         
   12 entries                                                                   
     n  l   j            E        occ.                                          
     1  0  0.50    -24164.6631   2.0000                                         
     2  0  0.50     -3530.9218   2.0000                                         
     2  1  1.50     -3165.6822   6.0000                                         
     3  0  0.50      -639.4577   2.0000                                         
     3  1  1.50      -519.4532   6.0000                                         
     3  2  2.50      -328.9757  10.0000                                         
     4  0  0.50       -88.7014   2.0000                                         
     4  1  1.50       -54.4540   6.0000                                         
     4  2  2.50        -6.6878   9.0000                                         
     5  0  0.50        -4.3543   1.0000                                         
     5  1  0.50        -1.3606   0.0000                                         
     4  3  2.50        -1.3606   0.0000                                         
   Description                                                                  
     l       E           TYP  RCUT    TYP  RCUT                                 
     2     -6.6878251     23  2.400                                             
     2     -8.0484077     23  2.400                                             
     0     -4.3542939     23  2.400                                             
     0      4.3406793     23  2.400                                             
     1     -4.0817478     23  2.600                                             
     1     15.8380318     23  2.600                                             
     3     -4.0817478     23  2.400                                             
  local pseudopotential read in
  partial core-charges read in
  partial kinetic energy density read in
  atomic valenz-charges read in
  non local Contribution for L=           2  read in
    real space projection operators read in
  non local Contribution for L=           2  read in
    real space projection operators read in
  non local Contribution for L=           0  read in
    real space projection operators read in
  non local Contribution for L=           0  read in
    real space projection operators read in
  non local Contribution for L=           1  read in
    real space projection operators read in
  non local Contribution for L=           1  read in
    real space projection operators read in
    PAW grid and wavefunctions read in
 
   number of l-projection  operators is LMAX  =           6
   number of lm-projection operators is LMMAX =          18
 
 Optimization of the real space projectors (new method)

 maximal supplied QI-value         = 14.36
 optimisation between [QCUT,QGAM] = [  9.48, 19.10] = [ 25.16,102.17] Ry 
 Optimized for a Real-space Cutoff    1.52 Angstroem

   l    n(q)    QCUT    max X(q) W(low)/X(q) W(high)/X(q)  e(spline) 
   2      8     9.479    59.108    0.48E-04    0.31E-03    0.96E-07
   2      8     9.479    58.101    0.46E-04    0.32E-03    0.99E-07
   0      9     9.479   102.235    0.56E-04    0.11E-03    0.61E-07
   0      9     9.479    58.388    0.50E-04    0.10E-03    0.58E-07
   1      8     9.479    22.191    0.26E-03    0.25E-04    0.13E-06
   1      8     9.479    15.590    0.22E-03    0.23E-04    0.11E-06
  PAW_PBE Pd 04Jan2005                  :
 energy of atom  1       EATOM= -809.7530
 kinetic energy error for atom=    0.0269 (will be added to EATOM!!)
 
 
 POSCAR: Pd                                      
  positions in cartesian coordinates
  No initial velocities read in
 exchange correlation table for  LEXCH =        8
   RHO(1)=    0.500       N(1)  =     2000
   RHO(2)=  100.500       N(2)  =     4000
 


--------------------------------------------------------------------------------------------------------


 ion  position               nearest neighbor table
   1  0.833  0.333  0.344-  13 2.79  12 2.79  15 2.79  17 2.79  18 2.79  16 2.79  17 2.79  16 2.79
                            18 2.79
   2  0.500  0.000  0.656-   4 2.79   5 2.79   6 2.79   3 2.79  20 2.79  19 2.79  20 2.79   3 2.79
                            19 2.79
   3  0.000  0.000  0.656-   5 2.79   4 2.79   7 2.79   2 2.79  19 2.79  19 2.79  20 2.79   2 2.79
                            20 2.79
   4  0.333  0.833  0.578-   2 2.79   3 2.79  20 2.79   6 2.79   5 2.79   6 2.79   7 2.79   5 2.79
                             7 2.79  11 2.79   8 2.79   9 2.79
   5  0.833  0.833  0.578-   3 2.79   2 2.79  19 2.79   7 2.79   4 2.79   6 2.79   7 2.79   4 2.79
                             6 2.79  10 2.79   9 2.79   8 2.79
   6  0.333  0.333  0.578-  20 2.79  19 2.79   2 2.79   4 2.79   7 2.79   4 2.79   5 2.79   5 2.79
                             7 2.79   9 2.79  10 2.79  11 2.79
   7  0.833  0.333  0.578-  19 2.79   3 2.79  20 2.79   5 2.79   6 2.79   4 2.79   5 2.79   4 2.79
                             6 2.79   8 2.79  11 2.79  10 2.79
   8  0.667  0.667  0.500-   9 2.79  10 2.79  10 2.79  11 2.79   9 2.79  11 2.79   7 2.79  12 2.79
                             4 2.79  13 2.79  14 2.79   5 2.79
   9  0.167  0.667  0.500-   8 2.79  11 2.79  10 2.79  11 2.79   8 2.79  10 2.79   6 2.79  13 2.79
                             5 2.79  12 2.79  15 2.79   4 2.79
  10  0.667  0.167  0.500-   8 2.79  11 2.79   8 2.79   9 2.79   9 2.79  11 2.79   6 2.79  14 2.79
                             5 2.79  12 2.79  15 2.79   7 2.79
  11  0.167  0.167  0.500-   9 2.79  10 2.79   8 2.79   9 2.79   8 2.79  10 2.79   7 2.79  15 2.79
                             4 2.79  14 2.79  13 2.79   6 2.79
  12  0.500  0.500  0.422-  18 2.79  16 2.79   1 2.79  13 2.79  14 2.79  14 2.79  15 2.79  13 2.79
                            15 2.79   8 2.79   9 2.79  10 2.79
  13  0.000  0.500  0.422-   1 2.79  17 2.79  18 2.79  12 2.79  15 2.79  14 2.79  15 2.79  12 2.79
                            14 2.79   9 2.79   8 2.79  11 2.79
  14  0.500  0.000  0.422-  16 2.79  17 2.79  18 2.79  15 2.79  12 2.79  12 2.79  13 2.79  13 2.79
                            15 2.79  10 2.79  11 2.79   8 2.79
  15  0.000  0.000  0.422-  17 2.79  16 2.79   1 2.79  13 2.79  14 2.79  12 2.79  13 2.79  12 2.79
                            14 2.79  11 2.79  10 2.79   9 2.79
  16  0.333  0.833  0.344-  14 2.79  12 2.79  15 2.79  17 2.79  18 2.79   1 2.79  18 2.79   1 2.79
                            17 2.79
  17  0.833  0.833  0.344-  15 2.79  14 2.79  13 2.79   1 2.79  16 2.79   1 2.79  18 2.79  16 2.79
                            18 2.79
  18  0.333  0.333  0.344-  12 2.79  13 2.79  14 2.79   1 2.79  16 2.79  16 2.79  17 2.79   1 2.79
                            17 2.79
  19  0.000  0.500  0.656-   7 2.79   6 2.79   5 2.79   3 2.79  20 2.79   2 2.79   3 2.79   2 2.79
                            20 2.79
  20  0.500  0.500  0.656-   6 2.79   4 2.79   7 2.79   2 2.79  19 2.79   2 2.79   3 2.79   3 2.79
                            19 2.79
 
  LATTYP: Found a hexagonal cell.
 ALAT       =     5.5720014357
 C/A-ratio  =     5.2223676856
  
  Lattice vectors:
  
 A1 = (   2.7860007179,  -4.8254947933,   0.0000000000)
 A2 = (  -5.5720014357,   0.0000000000,   0.0000000000)
 A3 = (   0.0000000000,   0.0000000000, -29.0990402424)


Analysis of symmetry for initial positions (statically):
=====================================================================
 Subroutine PRICEL returns following result:
 
  LATTYP: Found a hexagonal cell.
 ALAT       =     2.7860007179
 C/A-ratio  =    10.4447353713
  
  Lattice vectors:
  
 A1 = (   1.3930003589,  -2.4127473966,   0.0000000000)
 A2 = (  -2.7860007179,   0.0000000000,   0.0000000000)
 A3 = (   0.0000000000,   0.0000000000, -29.0990402424)
 
   4 primitive cells build up your supercell.
 

 Routine SETGRP: Setting up the symmetry group for a 
 hexagonal supercell.


 Subroutine GETGRP returns: Found 12 space group operations
 (whereof  6 operations were pure point group operations)
 out of a pool of 24 trial point group operations.


The static configuration has the point symmetry C_3v.
 The point group associated with its full space group is D_3d.


Analysis of symmetry for dynamics (positions and initial velocities):
=====================================================================
 Subroutine PRICEL returns following result:
 
  LATTYP: Found a hexagonal cell.
 ALAT       =     2.7860007179
 C/A-ratio  =    10.4447353713
  
  Lattice vectors:
  
 A1 = (   1.3930003589,  -2.4127473966,   0.0000000000)
 A2 = (  -2.7860007179,   0.0000000000,   0.0000000000)
 A3 = (   0.0000000000,   0.0000000000, -29.0990402424)
 
   4 primitive cells build up your supercell.
 

 Routine SETGRP: Setting up the symmetry group for a 
 hexagonal supercell.


 Subroutine GETGRP returns: Found 12 space group operations
 (whereof  6 operations were pure point group operations)
 out of a pool of 24 trial point group operations.


The dynamic configuration has the point symmetry C_3v.
 The point group associated with its full space group is D_3d.


Analysis of constrained symmetry for selective dynamics:
=====================================================================
 Subroutine PRICEL returns following result:
 
  LATTYP: Found a hexagonal cell.
 ALAT       =     2.7860007179
 C/A-ratio  =    10.4447353713
  
  Lattice vectors:
  
 A1 = (   1.3930003589,  -2.4127473966,   0.0000000000)
 A2 = (  -2.7860007179,   0.0000000000,   0.0000000000)
 A3 = (   0.0000000000,   0.0000000000, -29.0990402424)
 
   4 primitive cells build up your supercell.
 

 Routine SETGRP: Setting up the symmetry group for a 
 hexagonal supercell.


 Subroutine GETGRP returns: Found  6 space group operations
 (whereof  6 operations were pure point group operations)
 out of a pool of 24 trial point group operations.


The constrained configuration has the point symmetry C_3v.


 Subroutine INISYM returns: Found  6 space group operations
 (whereof  6 operations are pure point group operations),
 and found     4 'primitive' translations

 
 
 KPOINTS: Pd-slab                                 

Automatic generation of k-mesh.
Space group operators:
 irot       det(A)        alpha          n_x          n_y          n_z        tau_x        tau_y        tau_z
    1     1.000000     0.000000     1.000000     0.000000     0.000000     0.000000     0.000000     0.000000
    2     1.000000   120.000000     0.000000     0.000000     1.000000     0.000000     0.000000     0.000000
    3     1.000000   120.000000     0.000000     0.000000    -1.000000     0.000000     0.000000     0.000000
    4    -1.000000   180.000000     0.500000    -0.866025     0.000000     0.000000     0.000000     0.000000
    5    -1.000000   180.000000     1.000000     0.000000     0.000000     0.000000     0.000000     0.000000
    6    -1.000000   180.000000    -0.500000    -0.866025     0.000000     0.000000     0.000000     0.000000
 
 Subroutine IBZKPT returns following result:
 ===========================================
 
 Found     20 irreducible k-points:
 
 Following reciprocal coordinates:
            Coordinates               Weight
  0.062500  0.062500  0.000000     48.000000
  0.187500  0.062500  0.000000     96.000000
  0.312500  0.062500  0.000000     96.000000
  0.437500  0.062500  0.000000     96.000000
 -0.437500  0.062500  0.000000     96.000000
 -0.312500  0.062500  0.000000     96.000000
 -0.187500  0.062500  0.000000     96.000000
 -0.062500  0.062500  0.000000     48.000000
  0.187500  0.187500  0.000000     48.000000
  0.312500  0.187500  0.000000     96.000000
  0.437500  0.187500  0.000000     96.000000
 -0.437500  0.187500  0.000000     96.000000
 -0.312500  0.187500  0.000000     96.000000
 -0.187500  0.187500  0.000000     48.000000
  0.312500  0.312500  0.000000     48.000000
  0.437500  0.312500  0.000000     96.000000
 -0.437500  0.312500  0.000000     96.000000
 -0.312500  0.312500  0.000000     48.000000
  0.437500  0.437500  0.000000     48.000000
 -0.437500  0.437500  0.000000     48.000000
 
 Following cartesian coordinates:
            Coordinates               Weight
  0.011217  0.006476  0.000000     48.000000
  0.033650 -0.006476  0.000000     96.000000
  0.056084 -0.019428  0.000000     96.000000
  0.078518 -0.032380  0.000000     96.000000
 -0.078518  0.058284  0.000000     96.000000
 -0.056084  0.045332  0.000000     96.000000
 -0.033650  0.032380  0.000000     96.000000
 -0.011217  0.019428  0.000000     48.000000
  0.033650  0.019428  0.000000     48.000000
  0.056084  0.006476  0.000000     96.000000
  0.078518 -0.006476  0.000000     96.000000
 -0.078518  0.084188  0.000000     96.000000
 -0.056084  0.071236  0.000000     96.000000
 -0.033650  0.058284  0.000000     48.000000
  0.056084  0.032380  0.000000     48.000000
  0.078518  0.019428  0.000000     96.000000
 -0.078518  0.110092  0.000000     96.000000
 -0.056084  0.097140  0.000000     48.000000
  0.078518  0.045332  0.000000     48.000000
 -0.078518  0.135996  0.000000     48.000000
 


--------------------------------------------------------------------------------------------------------




 Dimension of arrays:
   k-points           NKPTS =     20   k-points in BZ     NKDIM =     20   number of bands    NBANDS=    144
   number of dos      NEDOS =    301   number of ions     NIONS =     20
   non local maximal  LDIM  =      6   non local SUM 2l+1 LMDIM =     18
   total plane-waves  NPLWV = 109760
   max r-space proj   IRMAX =   2114   max aug-charges    IRDMAX=   7004
   dimension x,y,z NGX =    28 NGY =   28 NGZ =  140
   dimension x,y,z NGXF=    56 NGYF=   56 NGZF=  280
   support grid    NGXF=    56 NGYF=   56 NGZF=  280
   ions per type =              20
   NGX,Y,Z   is equivalent  to a cutoff of   8.35,  8.35,  8.00 a.u.
   NGXF,Y,Z  is equivalent  to a cutoff of  16.71, 16.71, 16.00 a.u.

 SYSTEM =  Pd-slab                                 
 POSCAR =  Pd                                      

 Startparameter for this run:
   NWRITE =      2    write-flag & timer
   PREC   = normal    normal or accurate (medium, high low for compatibility)
   ISTART =      0    job   : 0-new  1-cont  2-samecut
   ICHARG =      2    charge: 1-file 2-atom 10-const
   ISPIN  =      1    spin polarized calculation?
   LNONCOLLINEAR =      F non collinear calculations
   LSORBIT =      F    spin-orbit coupling
   INIWAV =      1    electr: 0-lowe 1-rand  2-diag
   LASPH  =      F    aspherical Exc in radial PAW
   METAGGA=      F    non-selfconsistent MetaGGA calc.

 Electronic Relaxation 1
   ENCUT  =  350.0 eV  25.72 Ry    5.07 a.u.   8.50  8.50 44.39*2*pi/ulx,y,z
   ENINI  =  350.0     initial cutoff
   ENAUG  =  416.2 eV  augmentation charge cutoff
   NELM   =    300;   NELMIN=  5; NELMDL= -5     # of ELM steps 
   EDIFF  = 0.1E-03   stopping-criterion for ELM
   LREAL  =      T    real-space projection
   NLSPLINE    = F    spline interpolate recip. space projectors
   LCOMPAT=      F    compatible to vasp.4.4
   GGA_COMPAT  = T    GGA compatible to vasp.4.4-vasp.4.6
   LMAXPAW     = -100 max onsite density
   LMAXMIX     =    2 max onsite mixed and CHGCAR
   VOSKOWN=      1    Vosko Wilk Nusair interpolation
   ROPT   =   -0.00050
 Ionic relaxation
   EDIFFG = 0.1E-02   stopping-criterion for IOM
   NSW    =    200    number of steps for IOM
   NBLOCK =      1;   KBLOCK =    200    inner block; outer block 
   IBRION =      2    ionic relax: 0-MD 1-quasi-New 2-CG
   NFREE  =      1    steps in history (QN), initial steepest desc. (CG)
   ISIF   =      2    stress and relaxation
   IWAVPR =     11    prediction:  0-non 1-charg 2-wave 3-comb
   ISYM   =      2    0-nonsym 1-usesym 2-fastsym
   LCORR  =      T    Harris-Foulkes like correction to forces

   POTIM  = 0.5000    time-step for ionic-motion
   TEIN   =    0.0    initial temperature
   TEBEG  =    0.0;   TEEND  =   0.0 temperature during run
   SMASS  =  -3.00    Nose mass-parameter (am)
   estimated Nose-frequenzy (Omega)   =  0.10E-29 period in steps =****** mass=  -0.710E-27a.u.
   SCALEE = 1.0000    scale energy and forces
   NPACO  =    256;   APACO  = 16.0  distance and # of slots for P.C.
   PSTRESS=    0.0 pullay stress

  Mass of Ions in am
   POMASS = 106.42
  Ionic Valenz
   ZVAL   =  10.00
  Atomic Wigner-Seitz radii
   RWIGS  =  -1.00
  virtual crystal weights 
   VCA    =   1.00
   NELECT =     200.0000    total number of electrons
   NUPDOWN=      -1.0000    fix difference up-down

 DOS related values:
   EMIN   =  10.00;   EMAX   =-10.00  energy-range for DOS
   EFERMI =   0.00
   ISMEAR =     1;   SIGMA  =   0.40  broadening in eV -4-tet -1-fermi 0-gaus

 Electronic relaxation 2 (details)
   IALGO  =     38    algorithm
   LDIAG  =      T    sub-space diagonalisation (order eigenvalues)
   LSUBROT=      F    optimize rotation matrix (better conditioning)
   TURBO    =      0    0=normal 1=particle mesh
   IRESTART =      0    0=no restart 2=restart with 2 vectors
   NREBOOT  =      0    no. of reboots
   NMIN     =      0    reboot dimension
   EREF     =   0.00    reference energy to select bands
   IMIX   =      4    mixing-type and parameters
     AMIX     =   0.40;   BMIX     =  1.00
     AMIX_MAG =   1.60;   BMIX_MAG =  1.00
     AMIN     =   0.10
     WC   =   100.;   INIMIX=   1;  MIXPRE=   1;  MAXMIX= -45

 Intra band minimization:
   WEIMIN = 0.0010     energy-eigenvalue tresh-hold
   EBREAK =  0.17E-06  absolut break condition
   DEPER  =   0.30     relativ break condition  

   TIME   =   0.40     timestep for ELM

  volume/ion in A,a.u.               =      39.12       264.00
  Fermi-wavevector in a.u.,A,eV,Ry     =   1.038981  1.963389 14.687236  1.079481
  Thomas-Fermi vector in A             =   2.173490
 
 Write flags
   LWAVE        =      F    write WAVECAR
   LDOWNSAMPLE  =      F    k-point downsampling of WAVECAR
   LCHARG       =      F    write CHGCAR
   LVTOT        =      F    write LOCPOT, total local potential
   LVHAR        =      F    write LOCPOT, Hartree potential only
   LELF         =      F    write electronic localiz. function (ELF)
   LORBIT       =      0    0 simple, 1 ext, 2 COOP (PROOUT), +10 PAW based schemes


 Dipole corrections
   LMONO  =      F    monopole corrections only (constant potential shift)
   LDIPOL =      F    correct potential (dipole corrections)
   IDIPOL =      0    1-x, 2-y, 3-z, 4-all directions 
   EPSILON=  1.0000000 bulk dielectric constant

 Exchange correlation treatment:
   GGA     =    --    GGA type
   LEXCH   =     8    internal setting for exchange type
   VOSKOWN=      1    Vosko Wilk Nusair interpolation
   LHFCALC =     F    Hartree Fock is set to
   LHFONE  =     F    Hartree Fock one center treatment
   AEXX    =    0.0000 exact exchange contribution

 Linear response parameters
   LEPSILON=     F    determine dielectric tensor
   LRPA    =     F    only Hartree local field effects (RPA)
   LNABLA  =     F    use nabla operator in PAW spheres
   LVEL    =     F    velocity operator in full k-point grid
   LINTERFAST=   F  fast interpolation
   KINTER  =     0    interpolate to denser k-point grid
   CSHIFT  =0.1000    complex shift for real part using Kramers Kronig
   OMEGAMAX=  -1.0    maximum frequency
   DEG_THRESHOLD= 0.2000000E-02 threshold for treating states as degnerate
   RTIME   =   -0.100 relaxation time in fs
  (WPLASMAI=    0.000 imaginary part of plasma frequency in eV, 0.658/RTIME)
   DFIELD  = 0.0000000 0.0000000 0.0000000 field for delta impulse in time
 
 Orbital magnetization related:
   ORBITALMAG=     F  switch on orbital magnetization
   LCHIMAG   =     F  perturbation theory with respect to B field
   DQ        =  0.001000  dq finite difference perturbation B field
   LLRAUG    =     F  two centre corrections for induced B field



--------------------------------------------------------------------------------------------------------


 conjugate gradient relaxation of ions
   using selective dynamics as specified on POSCAR
   WARNING: If single coordinates had been selected the selection of coordinates
            is made according to the corresponding   d i r e c t   coordinates!
            Don't support selection of single cartesian coordinates -- sorry ...
  !
 charge density and potential will be updated during run
 non-spin polarized calculation
 Variant of blocked Davidson
 Davidson routine will perform the subspace rotation
 perform sub-space diagonalisation
    after iterative eigenvector-optimisation
 modified Broyden-mixing scheme, WC =      100.0
 initial mixing is a Kerker type mixing with AMIX =  0.4000 and BMIX =      1.0000
 Hartree-type preconditioning will be used
 using additional bands           44
 real space projection scheme for non local part
 use partial core corrections
 calculate Harris-corrections to forces 
   (improved forces if not selfconsistent)
 use gradient corrections 
 use of overlap-Matrix (Vanderbilt PP)
 Methfessel and Paxton  Order N= 1 SIGMA  =   0.40


--------------------------------------------------------------------------------------------------------


  energy-cutoff  :      350.00
  volume of cell :      782.41
      direct lattice vectors                 reciprocal lattice vectors
     5.572001436  0.000000000  0.000000000     0.179468726 -0.103616317  0.000000000
     2.786000718  4.825494793  0.000000000     0.000000000  0.207232635  0.000000000
     0.000000000  0.000000000 29.099040242     0.000000000  0.000000000  0.034365395

  length of vectors
     5.572001436  5.572001436 29.099040242     0.207232635  0.207232635  0.034365395


 
 k-points in units of 2pi/SCALE and weight: Pd-slab                                 
   0.01121680  0.00647602  0.00000000       0.031
   0.03365039 -0.00647602  0.00000000       0.062
   0.05608398 -0.01942806  0.00000000       0.062
   0.07851757 -0.03238010  0.00000000       0.062
  -0.07851757  0.05828418  0.00000000       0.062
  -0.05608398  0.04533214  0.00000000       0.062
  -0.03365039  0.03238010  0.00000000       0.062
  -0.01121680  0.01942806  0.00000000       0.031
   0.03365039  0.01942806  0.00000000       0.031
   0.05608398  0.00647602  0.00000000       0.062
   0.07851757 -0.00647602  0.00000000       0.062
  -0.07851757  0.08418826  0.00000000       0.062
  -0.05608398  0.07123622  0.00000000       0.062
  -0.03365039  0.05828418  0.00000000       0.031
   0.05608398  0.03238010  0.00000000       0.031
   0.07851757  0.01942806  0.00000000       0.062
  -0.07851757  0.11009234  0.00000000       0.062
  -0.05608398  0.09714030  0.00000000       0.031
   0.07851757  0.04533214  0.00000000       0.031
  -0.07851757  0.13599642  0.00000000       0.031
 
 k-points in reciprocal lattice and weights: Pd-slab                                 
   0.06250000  0.06250000  0.00000000       0.031
   0.18750000  0.06250000  0.00000000       0.062
   0.31250000  0.06250000  0.00000000       0.062
   0.43750000  0.06250000  0.00000000       0.062
  -0.43750000  0.06250000  0.00000000       0.062
  -0.31250000  0.06250000  0.00000000       0.062
  -0.18750000  0.06250000  0.00000000       0.062
  -0.06250000  0.06250000  0.00000000       0.031
   0.18750000  0.18750000  0.00000000       0.031
   0.31250000  0.18750000  0.00000000       0.062
   0.43750000  0.18750000  0.00000000       0.062
  -0.43750000  0.18750000  0.00000000       0.062
  -0.31250000  0.18750000  0.00000000       0.062
  -0.18750000  0.18750000  0.00000000       0.031
   0.31250000  0.31250000  0.00000000       0.031
   0.43750000  0.31250000  0.00000000       0.062
  -0.43750000  0.31250000  0.00000000       0.062
  -0.31250000  0.31250000  0.00000000       0.031
   0.43750000  0.43750000  0.00000000       0.031
  -0.43750000  0.43750000  0.00000000       0.031
 
 position of ions in fractional coordinates (direct lattice) 
   0.83333333  0.33333333  0.34365395
   0.50000000  0.00000000  0.65634605
   0.00000000  0.00000000  0.65634605
   0.33333333  0.83333333  0.57817303
   0.83333333  0.83333333  0.57817303
   0.33333333  0.33333333  0.57817303
   0.83333333  0.33333333  0.57817303
   0.66666667  0.66666667  0.50000000
   0.16666667  0.66666667  0.50000000
   0.66666667  0.16666667  0.50000000
   0.16666667  0.16666667  0.50000000
   0.50000000  0.50000000  0.42182697
   0.00000000  0.50000000  0.42182697
   0.50000000  0.00000000  0.42182697
   0.00000000  0.00000000  0.42182697
   0.33333333  0.83333333  0.34365395
   0.83333333  0.83333333  0.34365395
   0.33333333  0.33333333  0.34365395
   0.00000000  0.50000000  0.65634605
   0.50000000  0.50000000  0.65634605
 
 position of ions in cartesian coordinates  (Angst):
   5.57200144  1.60849826 10.00000000
   2.78600072  0.00000000 19.09904024
   0.00000000  0.00000000 19.09904024
   4.17900108  4.02124566 16.82428018
   6.96500179  4.02124566 16.82428018
   2.78600072  1.60849826 16.82428018
   5.57200144  1.60849826 16.82428018
   5.57200144  3.21699653 14.54952012
   2.78600072  3.21699653 14.54952012
   4.17900108  0.80424913 14.54952012
   1.39300036  0.80424913 14.54952012
   4.17900108  2.41274740 12.27476006
   1.39300036  2.41274740 12.27476006
   2.78600072  0.00000000 12.27476006
   0.00000000  0.00000000 12.27476006
   4.17900108  4.02124566 10.00000000
   6.96500179  4.02124566 10.00000000
   2.78600072  1.60849826 10.00000000
   1.39300036  2.41274740 19.09904024
   4.17900108  2.41274740 19.09904024
 


--------------------------------------------------------------------------------------------------------


 k-point  1 :   0.0625 0.0625 0.0000  plane waves:   11699
 k-point  2 :   0.1875 0.0625 0.0000  plane waves:   11678
 k-point  3 :   0.3125 0.0625 0.0000  plane waves:   11644
 k-point  4 :   0.4375 0.0625 0.0000  plane waves:   11613
 k-point  5 :  -0.4375 0.0625 0.0000  plane waves:   11584
 k-point  6 :  -0.3125 0.0625 0.0000  plane waves:   11633
 k-point  7 :  -0.1875 0.0625 0.0000  plane waves:   11664
 k-point  8 :  -0.0625 0.0625 0.0000  plane waves:   11701
 k-point  9 :   0.1875 0.1875 0.0000  plane waves:   11669
 k-point 10 :   0.3125 0.1875 0.0000  plane waves:   11655
 k-point 11 :   0.4375 0.1875 0.0000  plane waves:   11637
 k-point 12 :  -0.4375 0.1875 0.0000  plane waves:   11602
 k-point 13 :  -0.3125 0.1875 0.0000  plane waves:   11602
 k-point 14 :  -0.1875 0.1875 0.0000  plane waves:   11673
 k-point 15 :   0.3125 0.3125 0.0000  plane waves:   11649
 k-point 16 :   0.4375 0.3125 0.0000  plane waves:   11619
 k-point 17 :  -0.4375 0.3125 0.0000  plane waves:   11603
 k-point 18 :  -0.3125 0.3125 0.0000  plane waves:   11606
 k-point 19 :   0.4375 0.4375 0.0000  plane waves:   11610
 k-point 20 :  -0.4375 0.4375 0.0000  plane waves:   11600

 maximum and minimum number of plane-waves per node :      1479     1426

 maximum number of plane-waves:     11701
 maximum index in each direction: 
   IXMAX=    8   IYMAX=    8   IZMAX=   44
   IXMIN=   -8   IYMIN=   -8   IZMIN=  -44


 real space projection operators:
  total allocation   :       5617.69 KBytes
  max/ min on nodes  :        814.78        594.56


 parallel 3D FFT for wavefunctions:
    minimum data exchange during FFTs selected (reduces bandwidth)
 parallel 3D FFT for charge:
    minimum data exchange during FFTs selected (reduces bandwidth)


 total amount of memory used by VASP MPI-rank0    53093. kBytes
=======================================================================

   base      :      30000. kBytes
   nonlr-proj:       1711. kBytes
   fftplans  :       1501. kBytes
   grid      :       2141. kBytes
   one-center:         46. kBytes
   wavefun   :      17694. kBytes
 
     INWAV:  cpu time    0.0000: real time    0.0000
 Broyden mixing: mesh for mixing (old mesh)
   NGX = 17   NGY = 17   NGZ = 89
  (NGX  = 56   NGY  = 56   NGZ  =280)
  gives a total of  25721 points

 initial charge density was supplied:
 charge density of overlapping atoms calculated
 number of electron     200.0000000 magnetization 
 keeping initial charge density in first step


--------------------------------------------------------------------------------------------------------


 Maximum index for non-local projection operator          345
 Maximum index for augmentation-charges          383 (set IRDMAX)


--------------------------------------------------------------------------------------------------------


 First call to EWALD:  gamma=   0.192
 Maximum number of real-space cells 5x 5x 1
 Maximum number of reciprocal cells 2x 2x 8

    FEWALD:  cpu time    0.0023: real time    0.0023


--------------------------------------- Iteration      1(   1)  ---------------------------------------


    POTLOK:  cpu time    0.0202: real time    0.0295
    SETDIJ:  cpu time    0.0027: real time    0.0027
     EDDAV:  cpu time    4.4008: real time    4.4043
       DOS:  cpu time    0.0036: real time    0.0036
    --------------------------------------------
      LOOP:  cpu time    4.4273: real time    4.4400

 eigenvalue-minimisations  :  5824
 total energy-change (2. order) : 0.1040734E+04  (-0.7411713E+04)
 number of electron     200.0000000 magnetization 
 augmentation part      200.0000000 magnetization 

 Free energy of the ion-electron system (eV)
  ---------------------------------------------------
  alpha Z        PSCENC =       333.20445113
  Ewald energy   TEWEN  =    107474.69669589
  -Hartree energ DENC   =   -124307.76042782
  -exchange      EXHF   =         0.00000000
  -V(xc)+E(xc)   XCENC  =      -588.99454026
  PAW double counting   =     16134.76629080   -14890.32048973
  entropy T*S    EENTRO =        -0.00860561
  eigenvalues    EBANDS =       690.62779587
  atomic energy  EATOM  =     16194.52257001
  Solvation  Ediel_sol  =         0.00000000
  ---------------------------------------------------
  free energy    TOTEN  =      1040.73374026 eV

  energy without entropy =     1040.74234587  energy(sigma->0) =     1040.73660880


--------------------------------------------------------------------------------------------------------




--------------------------------------- Iteration      1(   2)  ---------------------------------------


     EDDAV:  cpu time    4.7338: real time    4.7360
       DOS:  cpu time    0.0042: real time    0.0042
    --------------------------------------------
      LOOP:  cpu time    4.7380: real time    4.7401

 eigenvalue-minimisations  :  6432
 total energy-change (2. order) :-0.1100807E+04  (-0.1030857E+04)
 number of electron     200.0000000 magnetization 
 augmentation part      200.0000000 magnetization 

 Free energy of the ion-electron system (eV)
  ---------------------------------------------------
  alpha Z        PSCENC =       333.20445113
  Ewald energy   TEWEN  =    107474.69669589
  -Hartree energ DENC   =   -124307.76042782
  -exchange      EXHF   =         0.00000000
  -V(xc)+E(xc)   XCENC  =      -588.99454026
  PAW double counting   =     16134.76629080   -14890.32048973
  entropy T*S    EENTRO =        -0.19510262
  eigenvalues    EBANDS =      -409.99230985
  atomic energy  EATOM  =     16194.52257001
  Solvation  Ediel_sol  =         0.00000000
  ---------------------------------------------------
  free energy    TOTEN  =       -60.07286246 eV

  energy without entropy =      -59.87775984  energy(sigma->0) =      -60.00782826


--------------------------------------------------------------------------------------------------------




--------------------------------------- Iteration      1(   3)  ---------------------------------------


     EDDAV:  cpu time    4.7266: real time    4.7291
       DOS:  cpu time    0.0045: real time    0.0045
    --------------------------------------------
      LOOP:  cpu time    4.7311: real time    4.7335

 eigenvalue-minimisations  :  6424
 total energy-change (2. order) :-0.4412613E+02  (-0.4171299E+02)
 number of electron     200.0000000 magnetization 
 augmentation part      200.0000000 magnetization 

 Free energy of the ion-electron system (eV)
  ---------------------------------------------------
  alpha Z        PSCENC =       333.20445113
  Ewald energy   TEWEN  =    107474.69669589
  -Hartree energ DENC   =   -124307.76042782
  -exchange      EXHF   =         0.00000000
  -V(xc)+E(xc)   XCENC  =      -588.99454026
  PAW double counting   =     16134.76629080   -14890.32048973
  entropy T*S    EENTRO =        -0.44941539
  eigenvalues    EBANDS =      -453.86412531
  atomic energy  EATOM  =     16194.52257001
  Solvation  Ediel_sol  =         0.00000000
  ---------------------------------------------------
  free energy    TOTEN  =      -104.19899070 eV

  energy without entropy =     -103.74957530  energy(sigma->0) =     -104.04918557


--------------------------------------------------------------------------------------------------------




--------------------------------------- Iteration      1(   4)  ---------------------------------------


     EDDAV:  cpu time    5.1848: real time    5.1877
       DOS:  cpu time    0.0045: real time    0.0045
    --------------------------------------------
      LOOP:  cpu time    5.1893: real time    5.1922

 eigenvalue-minimisations  :  7248
 total energy-change (2. order) :-0.8107393E+00  (-0.8097334E+00)
 number of electron     200.0000000 magnetization 
 augmentation part      200.0000000 magnetization 

 Free energy of the ion-electron system (eV)
  ---------------------------------------------------
  alpha Z        PSCENC =       333.20445113
  Ewald energy   TEWEN  =    107474.69669589
  -Hartree energ DENC   =   -124307.76042782
  -exchange      EXHF   =         0.00000000
  -V(xc)+E(xc)   XCENC  =      -588.99454026
  PAW double counting   =     16134.76629080   -14890.32048973
  entropy T*S    EENTRO =        -0.45036685
  eigenvalues    EBANDS =      -454.67391316
  atomic energy  EATOM  =     16194.52257001
  Solvation  Ediel_sol  =         0.00000000
  ---------------------------------------------------
  free energy    TOTEN  =      -105.00972999 eV

  energy without entropy =     -104.55936315  energy(sigma->0) =     -104.85960771


--------------------------------------------------------------------------------------------------------




--------------------------------------- Iteration      1(   5)  ---------------------------------------


     EDDAV:  cpu time    5.0016: real time    5.0037
       DOS:  cpu time    0.0044: real time    0.0044
    CHARGE:  cpu time    0.2227: real time    0.2230
    MIXING:  cpu time    0.0012: real time    0.0012
    --------------------------------------------
      LOOP:  cpu time    5.2300: real time    5.2323

 eigenvalue-minimisations  :  6944
 total energy-change (2. order) :-0.1930498E-01  (-0.1930362E-01)
 number of electron     199.9999756 magnetization 
 augmentation part       80.7153462 magnetization 

 Broyden mixing:
  rms(total) = 0.28384E+01    rms(broyden)= 0.28382E+01
  rms(prec ) = 0.28725E+01
  weight for this iteration     100.00

 Free energy of the ion-electron system (eV)
  ---------------------------------------------------
  alpha Z        PSCENC =       333.20445113
  Ewald energy   TEWEN  =    107474.69669589
  -Hartree energ DENC   =   -124307.76042782
  -exchange      EXHF   =         0.00000000
  -V(xc)+E(xc)   XCENC  =      -588.99454026
  PAW double counting   =     16134.76629080   -14890.32048973
  entropy T*S    EENTRO =        -0.45040855
  eigenvalues    EBANDS =      -454.69317643
  atomic energy  EATOM  =     16194.52257001
  Solvation  Ediel_sol  =         0.00000000
  ---------------------------------------------------
  free energy    TOTEN  =      -105.02903497 eV

  energy without entropy =     -104.57862642  energy(sigma->0) =     -104.87889879


--------------------------------------------------------------------------------------------------------




--------------------------------------- Iteration      1(   6)  ---------------------------------------


    POTLOK:  cpu time    0.0168: real time    0.0170
    SETDIJ:  cpu time    0.0025: real time    0.0025
     EDDAV:  cpu time    4.6394: real time    4.6410
       DOS:  cpu time    0.0046: real time    0.0046
    CHARGE:  cpu time    0.2216: real time    0.2217
    MIXING:  cpu time    0.0012: real time    0.0012
    --------------------------------------------
      LOOP:  cpu time    4.8861: real time    4.8880

 eigenvalue-minimisations  :  6280
 total energy-change (2. order) : 0.4586127E+01  (-0.1377251E+01)
 number of electron     199.9999742 magnetization 
 augmentation part       83.9824160 magnetization 

 Broyden mixing:
  rms(total) = 0.14195E+01    rms(broyden)= 0.14194E+01
  rms(prec ) = 0.14266E+01
  weight for this iteration     100.00

 eigenvalues of (default mixing * dielectric matrix)
  average eigenvalue GAMMA=   1.5068
  1.5068

 Free energy of the ion-electron system (eV)
  ---------------------------------------------------
  alpha Z        PSCENC =       333.20445113
  Ewald energy   TEWEN  =    107474.69669589
  -Hartree energ DENC   =   -124229.40531203
  -exchange      EXHF   =         0.00000000
  -V(xc)+E(xc)   XCENC  =      -593.10868983
  PAW double counting   =     17178.66854683   -15958.25808070
  entropy T*S    EENTRO =        -0.45117707
  eigenvalues    EBANDS =      -500.31191248
  atomic energy  EATOM  =     16194.52257001
  Solvation  Ediel_sol  =         0.00000000
  ---------------------------------------------------
  free energy    TOTEN  =      -100.44290827 eV

  energy without entropy =      -99.99173120  energy(sigma->0) =     -100.29251591


--------------------------------------------------------------------------------------------------------




--------------------------------------- Iteration      1(   7)  ---------------------------------------


    POTLOK:  cpu time    0.0170: real time    0.0251
    SETDIJ:  cpu time    0.0025: real time    0.0025
     EDDAV:  cpu time    4.6600: real time    4.6620
       DOS:  cpu time    0.0046: real time    0.0046
    CHARGE:  cpu time    0.2232: real time    0.2234
    MIXING:  cpu time    0.0012: real time    0.0012
    --------------------------------------------
      LOOP:  cpu time    4.9084: real time    4.9188

 eigenvalue-minimisations  :  6312
 total energy-change (2. order) :-0.1944038E+01  (-0.5396141E+00)
 number of electron     199.9999743 magnetization 
 augmentation part       83.9989313 magnetization 

 Broyden mixing:
  rms(total) = 0.16736E+01    rms(broyden)= 0.16734E+01
  rms(prec ) = 0.18751E+01
  weight for this iteration     100.00

 eigenvalues of (default mixing * dielectric matrix)
  average eigenvalue GAMMA=   1.0095
  1.6860  0.3330

 Free energy of the ion-electron system (eV)
  ---------------------------------------------------
  alpha Z        PSCENC =       333.20445113
  Ewald energy   TEWEN  =    107474.69669589
  -Hartree energ DENC   =   -124274.82643189
  -exchange      EXHF   =         0.00000000
  -V(xc)+E(xc)   XCENC  =      -593.52938720
  PAW double counting   =     18102.79091396   -16895.42120606
  entropy T*S    EENTRO =        -0.23915064
  eigenvalues    EBANDS =      -443.58540119
  atomic energy  EATOM  =     16194.52257001
  Solvation  Ediel_sol  =         0.00000000
  ---------------------------------------------------
  free energy    TOTEN  =      -102.38694599 eV

  energy without entropy =     -102.14779535  energy(sigma->0) =     -102.30722911


--------------------------------------------------------------------------------------------------------




--------------------------------------- Iteration      1(   8)  ---------------------------------------


    POTLOK:  cpu time    0.0177: real time    0.0182
    SETDIJ:  cpu time    0.0025: real time    0.0025
     EDDAV:  cpu time    4.5757: real time    4.5773
       DOS:  cpu time    0.0046: real time    0.0046
    CHARGE:  cpu time    0.2221: real time    0.2221
    MIXING:  cpu time    0.0012: real time    0.0012
    --------------------------------------------
      LOOP:  cpu time    4.8237: real time    4.8258

 eigenvalue-minimisations  :  6184
 total energy-change (2. order) : 0.1637396E+00  (-0.1722446E+01)
 number of electron     199.9999725 magnetization 
 augmentation part       84.1524495 magnetization 

 Broyden mixing:
  rms(total) = 0.14175E+01    rms(broyden)= 0.14171E+01
  rms(prec ) = 0.16802E+01
  weight for this iteration     100.00

 eigenvalues of (default mixing * dielectric matrix)
  average eigenvalue GAMMA=   0.8862
  1.8993  0.5928  0.1664

 Free energy of the ion-electron system (eV)
  ---------------------------------------------------
  alpha Z        PSCENC =       333.20445113
  Ewald energy   TEWEN  =    107474.69669589
  -Hartree energ DENC   =   -124231.97755027
  -exchange      EXHF   =         0.00000000
  -V(xc)+E(xc)   XCENC  =      -593.57880437
  PAW double counting   =     18275.98445394   -17070.93945065
  entropy T*S    EENTRO =        -0.34036297
  eigenvalues    EBANDS =      -483.79520913
  atomic energy  EATOM  =     16194.52257001
  Solvation  Ediel_sol  =         0.00000000
  ---------------------------------------------------
  free energy    TOTEN  =      -102.22320643 eV

  energy without entropy =     -101.88284347  energy(sigma->0) =     -102.10975211


--------------------------------------------------------------------------------------------------------




--------------------------------------- Iteration      1(   9)  ---------------------------------------


    POTLOK:  cpu time    0.0166: real time    0.0168
    SETDIJ:  cpu time    0.0025: real time    0.0025
     EDDAV:  cpu time    4.6297: real time    4.6314
       DOS:  cpu time    0.0046: real time    0.0046
    CHARGE:  cpu time    0.2215: real time    0.2215
    MIXING:  cpu time    0.0012: real time    0.0012
    --------------------------------------------
      LOOP:  cpu time    4.8762: real time    4.8780

 eigenvalue-minimisations  :  6280
 total energy-change (2. order) : 0.3432049E+00  (-0.4883035E+00)
 number of electron     199.9999747 magnetization 
 augmentation part       84.0285668 magnetization 

 Broyden mixing:
  rms(total) = 0.12456E+01    rms(broyden)= 0.12451E+01
  rms(prec ) = 0.13934E+01
  weight for this iteration     100.00

 eigenvalues of (default mixing * dielectric matrix)
  average eigenvalue GAMMA=   0.9925
  2.5791  1.0218  0.1844  0.1844

 Free energy of the ion-electron system (eV)
  ---------------------------------------------------
  alpha Z        PSCENC =       333.20445113
  Ewald energy   TEWEN  =    107474.69669589
  -Hartree energ DENC   =   -124300.56261240
  -exchange      EXHF   =         0.00000000
  -V(xc)+E(xc)   XCENC  =      -593.71216365
  PAW double counting   =     18471.48085585   -17268.91563434
  entropy T*S    EENTRO =        -0.27879149
  eigenvalues    EBANDS =      -412.31537253
  atomic energy  EATOM  =     16194.52257001
  Solvation  Ediel_sol  =         0.00000000
  ---------------------------------------------------
  free energy    TOTEN  =      -101.88000154 eV

  energy without entropy =     -101.60121005  energy(sigma->0) =     -101.78707104


--------------------------------------------------------------------------------------------------------




--------------------------------------- Iteration      1(  10)  ---------------------------------------


    POTLOK:  cpu time    0.0168: real time    0.0170
    SETDIJ:  cpu time    0.0025: real time    0.0025
     EDDAV:  cpu time    4.5750: real time    4.5769
       DOS:  cpu time    0.0045: real time    0.0045
    CHARGE:  cpu time    0.2224: real time    0.2225
    MIXING:  cpu time    0.0013: real time    0.0013
    --------------------------------------------
      LOOP:  cpu time    4.8226: real time    4.8247

 eigenvalue-minimisations  :  6184
 total energy-change (2. order) : 0.1391088E+01  (-0.3008136E+00)
 number of electron     199.9999735 magnetization 
 augmentation part       84.2388060 magnetization 

 Broyden mixing:
  rms(total) = 0.67160E+00    rms(broyden)= 0.67120E+00
  rms(prec ) = 0.91308E+00
  weight for this iteration     100.00

 eigenvalues of (default mixing * dielectric matrix)
  average eigenvalue GAMMA=   0.8272
  2.5587  1.0257  0.2152  0.2152  0.1214

 Free energy of the ion-electron system (eV)
  ---------------------------------------------------
  alpha Z        PSCENC =       333.20445113
  Ewald energy   TEWEN  =    107474.69669589
  -Hartree energ DENC   =   -124268.41208188
  -exchange      EXHF   =         0.00000000
  -V(xc)+E(xc)   XCENC  =      -593.75520154
  PAW double counting   =     18859.13310706   -17661.33779633
  entropy T*S    EENTRO =        -0.38432127
  eigenvalues    EBANDS =      -438.15633689
  atomic energy  EATOM  =     16194.52257001
  Solvation  Ediel_sol  =         0.00000000
  ---------------------------------------------------
  free energy    TOTEN  =      -100.48891382 eV

  energy without entropy =     -100.10459255  energy(sigma->0) =     -100.36080673


--------------------------------------------------------------------------------------------------------




--------------------------------------- Iteration      1(  11)  ---------------------------------------


    POTLOK:  cpu time    0.0167: real time    0.0168
    SETDIJ:  cpu time    0.0025: real time    0.0025
     EDDAV:  cpu time    4.5510: real time    4.5543
       DOS:  cpu time    0.0045: real time    0.0045
    CHARGE:  cpu time    0.2235: real time    0.2236
    MIXING:  cpu time    0.0014: real time    0.0014
    --------------------------------------------
      LOOP:  cpu time    4.7997: real time    4.8032

 eigenvalue-minimisations  :  6120
 total energy-change (2. order) :-0.1629241E+00  (-0.2588126E+00)
 number of electron     199.9999736 magnetization 
 augmentation part       84.2223102 magnetization 

 Broyden mixing:
  rms(total) = 0.84906E+00    rms(broyden)= 0.84898E+00
  rms(prec ) = 0.12612E+01
  weight for this iteration     100.00

 eigenvalues of (default mixing * dielectric matrix)
  average eigenvalue GAMMA=   0.7645
  2.4724  1.0538  0.6471  0.2288  0.1468  0.0379

 Free energy of the ion-electron system (eV)
  ---------------------------------------------------
  alpha Z        PSCENC =       333.20445113
  Ewald energy   TEWEN  =    107474.69669589
  -Hartree energ DENC   =   -124270.96104349
  -exchange      EXHF   =         0.00000000
  -V(xc)+E(xc)   XCENC  =      -593.75665305
  PAW double counting   =     18855.89934912   -17657.97657318
  entropy T*S    EENTRO =        -0.33958845
  eigenvalues    EBANDS =      -435.94104588
  atomic energy  EATOM  =     16194.52257001
  Solvation  Ediel_sol  =         0.00000000
  ---------------------------------------------------
  free energy    TOTEN  =      -100.65183791 eV

  energy without entropy =     -100.31224947  energy(sigma->0) =     -100.53864176


--------------------------------------------------------------------------------------------------------




--------------------------------------- Iteration      1(  12)  ---------------------------------------


    POTLOK:  cpu time    0.0172: real time    0.0180
    SETDIJ:  cpu time    0.0025: real time    0.0025
     EDDAV:  cpu time    4.6142: real time    4.6158
       DOS:  cpu time    0.0046: real time    0.0046
    CHARGE:  cpu time    0.2217: real time    0.2219
    MIXING:  cpu time    0.0014: real time    0.0014
    --------------------------------------------
      LOOP:  cpu time    4.8616: real time    4.8643

 eigenvalue-minimisations  :  6224
 total energy-change (2. order) : 0.5715241E+00  (-0.1526582E+00)
 number of electron     199.9999743 magnetization 
 augmentation part       84.1427367 magnetization 

 Broyden mixing:
  rms(total) = 0.13777E+00    rms(broyden)= 0.13743E+00
  rms(prec ) = 0.15879E+00
  weight for this iteration     100.00

 eigenvalues of (default mixing * dielectric matrix)
  average eigenvalue GAMMA=   0.6782
  2.4525  1.0479  0.5819  0.2605  0.2164  0.1502  0.0378

 Free energy of the ion-electron system (eV)
  ---------------------------------------------------
  alpha Z        PSCENC =       333.20445113
  Ewald energy   TEWEN  =    107474.69669589
  -Hartree energ DENC   =   -124286.74252510
  -exchange      EXHF   =         0.00000000
  -V(xc)+E(xc)   XCENC  =      -593.68359240
  PAW double counting   =     18831.99132667   -17633.32730586
  entropy T*S    EENTRO =        -0.46058371
  eigenvalues    EBANDS =      -420.28135045
  atomic energy  EATOM  =     16194.52257001
  Solvation  Ediel_sol  =         0.00000000
  ---------------------------------------------------
  free energy    TOTEN  =      -100.08031382 eV

  energy without entropy =      -99.61973012  energy(sigma->0) =      -99.92678592


--------------------------------------------------------------------------------------------------------




--------------------------------------- Iteration      1(  13)  ---------------------------------------


    POTLOK:  cpu time    0.0169: real time    0.0197
    SETDIJ:  cpu time    0.0025: real time    0.0025
     EDDAV:  cpu time    4.4938: real time    4.4955
       DOS:  cpu time    0.0046: real time    0.0046
    CHARGE:  cpu time    0.2221: real time    0.2222
    MIXING:  cpu time    0.0014: real time    0.0014
    --------------------------------------------
      LOOP:  cpu time    4.7414: real time    4.7459

 eigenvalue-minimisations  :  6032
 total energy-change (2. order) : 0.6921881E-02  (-0.5605285E-02)
 number of electron     199.9999743 magnetization 
 augmentation part       84.1304223 magnetization 

 Broyden mixing:
  rms(total) = 0.86384E-01    rms(broyden)= 0.86350E-01
  rms(prec ) = 0.10003E+00
  weight for this iteration     100.00

 eigenvalues of (default mixing * dielectric matrix)
  average eigenvalue GAMMA=   0.7151
  2.4106  1.0010  0.8502  0.8502  0.1478  0.2253  0.1981  0.0378

 Free energy of the ion-electron system (eV)
  ---------------------------------------------------
  alpha Z        PSCENC =       333.20445113
  Ewald energy   TEWEN  =    107474.69669589
  -Hartree energ DENC   =   -124288.45172632
  -exchange      EXHF   =         0.00000000
  -V(xc)+E(xc)   XCENC  =      -593.67910714
  PAW double counting   =     18826.91994682   -17628.12949111
  entropy T*S    EENTRO =        -0.46426973
  eigenvalues    EBANDS =      -418.69246148
  atomic energy  EATOM  =     16194.52257001
  Solvation  Ediel_sol  =         0.00000000
  ---------------------------------------------------
  free energy    TOTEN  =      -100.07339194 eV

  energy without entropy =      -99.60912221  energy(sigma->0) =      -99.91863536


--------------------------------------------------------------------------------------------------------




--------------------------------------- Iteration      1(  14)  ---------------------------------------


    POTLOK:  cpu time    0.0170: real time    0.0199
    SETDIJ:  cpu time    0.0025: real time    0.0025
     EDDAV:  cpu time    4.5999: real time    4.6033
       DOS:  cpu time    0.0046: real time    0.0046
    CHARGE:  cpu time    0.2226: real time    0.2227
    MIXING:  cpu time    0.0015: real time    0.0015
    --------------------------------------------
      LOOP:  cpu time    4.8481: real time    4.8545

 eigenvalue-minimisations  :  6200
 total energy-change (2. order) : 0.1696174E-02  (-0.6650496E-03)
 number of electron     199.9999742 magnetization 
 augmentation part       84.1367100 magnetization 

 Broyden mixing:
  rms(total) = 0.65333E-01    rms(broyden)= 0.65329E-01
  rms(prec ) = 0.82502E-01
  weight for this iteration     100.00

 eigenvalues of (default mixing * dielectric matrix)
  average eigenvalue GAMMA=   0.8497
  2.3580  1.4203  1.4203  1.0457  0.7923  0.2289  0.1483  0.1963  0.0378

 Free energy of the ion-electron system (eV)
  ---------------------------------------------------
  alpha Z        PSCENC =       333.20445113
  Ewald energy   TEWEN  =    107474.69669589
  -Hartree energ DENC   =   -124292.64656669
  -exchange      EXHF   =         0.00000000
  -V(xc)+E(xc)   XCENC  =      -593.66471050
  PAW double counting   =     18813.53991633   -17614.45857577
  entropy T*S    EENTRO =        -0.46661270
  eigenvalues    EBANDS =      -414.79886346
  atomic energy  EATOM  =     16194.52257001
  Solvation  Ediel_sol  =         0.00000000
  ---------------------------------------------------
  free energy    TOTEN  =      -100.07169577 eV

  energy without entropy =      -99.60508306  energy(sigma->0) =      -99.91615820


--------------------------------------------------------------------------------------------------------




--------------------------------------- Iteration      1(  15)  ---------------------------------------


    POTLOK:  cpu time    0.0169: real time    0.0186
    SETDIJ:  cpu time    0.0025: real time    0.0025
     EDDAV:  cpu time    4.6020: real time    4.6038
       DOS:  cpu time    0.0047: real time    0.0047
    CHARGE:  cpu time    0.2223: real time    0.2225
    MIXING:  cpu time    0.0015: real time    0.0015
    --------------------------------------------
      LOOP:  cpu time    4.8500: real time    4.8537

 eigenvalue-minimisations  :  6224
 total energy-change (2. order) : 0.5857161E-02  (-0.6845787E-03)
 number of electron     199.9999743 magnetization 
 augmentation part       84.1186983 magnetization 

 Broyden mixing:
  rms(total) = 0.24986E-01    rms(broyden)= 0.24954E-01
  rms(prec ) = 0.28621E-01
  weight for this iteration     100.00

 eigenvalues of (default mixing * dielectric matrix)
  average eigenvalue GAMMA=   0.9179
  2.3634  2.3634  1.0099  1.0099  1.0502  0.7698  0.1483  0.2291  0.1972  0.0378

 Free energy of the ion-electron system (eV)
  ---------------------------------------------------
  alpha Z        PSCENC =       333.20445113
  Ewald energy   TEWEN  =    107474.69669589
  -Hartree energ DENC   =   -124305.51093803
  -exchange      EXHF   =         0.00000000
  -V(xc)+E(xc)   XCENC  =      -593.60601734
  PAW double counting   =     18807.68154652   -17608.26261711
  entropy T*S    EENTRO =        -0.47141465
  eigenvalues    EBANDS =      -402.32011500
  atomic energy  EATOM  =     16194.52257001
  Solvation  Ediel_sol  =         0.00000000
  ---------------------------------------------------
  free energy    TOTEN  =      -100.06583861 eV

  energy without entropy =      -99.59442396  energy(sigma->0) =      -99.90870039


--------------------------------------------------------------------------------------------------------




--------------------------------------- Iteration      1(  16)  ---------------------------------------


    POTLOK:  cpu time    0.0167: real time    0.0169
    SETDIJ:  cpu time    0.0025: real time    0.0025
     EDDAV:  cpu time    4.5723: real time    4.5739
       DOS:  cpu time    0.0046: real time    0.0046
    CHARGE:  cpu time    0.2222: real time    0.2222
    MIXING:  cpu time    0.0017: real time    0.0017
    --------------------------------------------
      LOOP:  cpu time    4.8201: real time    4.8219

 eigenvalue-minimisations  :  6184
 total energy-change (2. order) : 0.6080638E-03  (-0.1990024E-03)
 number of electron     199.9999743 magnetization 
 augmentation part       84.1095890 magnetization 

 Broyden mixing:
  rms(total) = 0.18104E-01    rms(broyden)= 0.18090E-01
  rms(prec ) = 0.24188E-01
  weight for this iteration     100.00

 eigenvalues of (default mixing * dielectric matrix)
  average eigenvalue GAMMA=   0.9590
  2.3004  2.3004  1.2907  1.2907  1.0622  0.8460  0.8460  0.1483  0.2290  0.1972
  0.0378

 Free energy of the ion-electron system (eV)
  ---------------------------------------------------
  alpha Z        PSCENC =       333.20445113
  Ewald energy   TEWEN  =    107474.69669589
  -Hartree energ DENC   =   -124312.29764785
  -exchange      EXHF   =         0.00000000
  -V(xc)+E(xc)   XCENC  =      -593.58266922
  PAW double counting   =     18808.09768345   -17608.58243922
  entropy T*S    EENTRO =        -0.47229572
  eigenvalues    EBANDS =      -395.65157901
  atomic energy  EATOM  =     16194.52257001
  Solvation  Ediel_sol  =         0.00000000
  ---------------------------------------------------
  free energy    TOTEN  =      -100.06523054 eV

  energy without entropy =      -99.59293482  energy(sigma->0) =      -99.90779864


--------------------------------------------------------------------------------------------------------




--------------------------------------- Iteration      1(  17)  ---------------------------------------


    POTLOK:  cpu time    0.0167: real time    0.0169
    SETDIJ:  cpu time    0.0026: real time    0.0026
     EDDAV:  cpu time    3.9836: real time    3.9849
       DOS:  cpu time    0.0047: real time    0.0047
    CHARGE:  cpu time    0.2226: real time    0.2227
    MIXING:  cpu time    0.0017: real time    0.0017
    --------------------------------------------
      LOOP:  cpu time    4.2318: real time    4.2335

 eigenvalue-minimisations  :  5072
 total energy-change (2. order) : 0.4823477E-03  (-0.7097835E-04)
 number of electron     199.9999743 magnetization 
 augmentation part       84.1094590 magnetization 

 Broyden mixing:
  rms(total) = 0.54654E-02    rms(broyden)= 0.54608E-02
  rms(prec ) = 0.71859E-02
  weight for this iteration     100.00

 eigenvalues of (default mixing * dielectric matrix)
  average eigenvalue GAMMA=   1.0191
  2.6846  2.5285  1.3579  1.3579  1.1090  0.8832  0.8832  0.8121  0.2290  0.1483
  0.1972  0.0378

 Free energy of the ion-electron system (eV)
  ---------------------------------------------------
  alpha Z        PSCENC =       333.20445113
  Ewald energy   TEWEN  =    107474.69669589
  -Hartree energ DENC   =   -124315.83978192
  -exchange      EXHF   =         0.00000000
  -V(xc)+E(xc)   XCENC  =      -593.57525425
  PAW double counting   =     18811.53600193   -17612.05720635
  entropy T*S    EENTRO =        -0.47132843
  eigenvalues    EBANDS =      -392.08089618
  atomic energy  EATOM  =     16194.52257001
  Solvation  Ediel_sol  =         0.00000000
  ---------------------------------------------------
  free energy    TOTEN  =      -100.06474820 eV

  energy without entropy =      -99.59341976  energy(sigma->0) =      -99.90763872


--------------------------------------------------------------------------------------------------------




--------------------------------------- Iteration      1(  18)  ---------------------------------------


    POTLOK:  cpu time    0.0168: real time    0.0170
    SETDIJ:  cpu time    0.0025: real time    0.0025
     EDDAV:  cpu time    3.8355: real time    3.8373
       DOS:  cpu time    0.0046: real time    0.0046
    CHARGE:  cpu time    0.2221: real time    0.2221
    MIXING:  cpu time    0.0019: real time    0.0019
    --------------------------------------------
      LOOP:  cpu time    4.0835: real time    4.0855

 eigenvalue-minimisations  :  4768
 total energy-change (2. order) : 0.3002677E-03  (-0.2541007E-04)
 number of electron     199.9999743 magnetization 
 augmentation part       84.1086629 magnetization 

 Broyden mixing:
  rms(total) = 0.68049E-02    rms(broyden)= 0.68036E-02
  rms(prec ) = 0.97441E-02
  weight for this iteration     100.00

 eigenvalues of (default mixing * dielectric matrix)
  average eigenvalue GAMMA=   1.0679
  2.9609  2.3598  1.4957  1.4957  1.1042  1.1042  0.9263  0.9263  0.8967  0.1483
  0.2290  0.1972  0.0378

 Free energy of the ion-electron system (eV)
  ---------------------------------------------------
  alpha Z        PSCENC =       333.20445113
  Ewald energy   TEWEN  =    107474.69669589
  -Hartree energ DENC   =   -124321.52274822
  -exchange      EXHF   =         0.00000000
  -V(xc)+E(xc)   XCENC  =      -593.56242670
  PAW double counting   =     18812.50638881   -17613.03259306
  entropy T*S    EENTRO =        -0.47146451
  eigenvalues    EBANDS =      -386.40532126
  atomic energy  EATOM  =     16194.52257001
  Solvation  Ediel_sol  =         0.00000000
  ---------------------------------------------------
  free energy    TOTEN  =      -100.06444793 eV

  energy without entropy =      -99.59298341  energy(sigma->0) =      -99.90729309


--------------------------------------------------------------------------------------------------------




--------------------------------------- Iteration      1(  19)  ---------------------------------------


    POTLOK:  cpu time    0.0172: real time    0.0180
    SETDIJ:  cpu time    0.0025: real time    0.0025
     EDDAV:  cpu time    3.4704: real time    3.4717
       DOS:  cpu time    0.0047: real time    0.0047
    CHARGE:  cpu time    0.2220: real time    0.2220
    MIXING:  cpu time    0.0020: real time    0.0020
    --------------------------------------------
      LOOP:  cpu time    3.7188: real time    3.7210

 eigenvalue-minimisations  :  4088
 total energy-change (2. order) :-0.1847147E-03  (-0.1986338E-04)
 number of electron     199.9999743 magnetization 
 augmentation part       84.1087537 magnetization 

 Broyden mixing:
  rms(total) = 0.53150E-02    rms(broyden)= 0.53137E-02
  rms(prec ) = 0.72000E-02
  weight for this iteration     100.00

 eigenvalues of (default mixing * dielectric matrix)
  average eigenvalue GAMMA=   1.1121
  3.0415  2.2516  2.2516  1.2977  1.2977  1.3681  0.8557  0.8557  0.9391  0.7985
  0.1483  0.2290  0.1972  0.0378

 Free energy of the ion-electron system (eV)
  ---------------------------------------------------
  alpha Z        PSCENC =       333.20445113
  Ewald energy   TEWEN  =    107474.69669589
  -Hartree energ DENC   =   -124325.30931037
  -exchange      EXHF   =         0.00000000
  -V(xc)+E(xc)   XCENC  =      -593.55837869
  PAW double counting   =     18811.44482167   -17612.00840979
  entropy T*S    EENTRO =        -0.47146157
  eigenvalues    EBANDS =      -382.58561090
  atomic energy  EATOM  =     16194.52257001
  Solvation  Ediel_sol  =         0.00000000
  ---------------------------------------------------
  free energy    TOTEN  =      -100.06463264 eV

  energy without entropy =      -99.59317107  energy(sigma->0) =      -99.90747879


--------------------------------------------------------------------------------------------------------




--------------------------------------- Iteration      1(  20)  ---------------------------------------


    POTLOK:  cpu time    0.0183: real time    0.0187
    SETDIJ:  cpu time    0.0025: real time    0.0025
     EDDAV:  cpu time    3.3697: real time    3.3711
       DOS:  cpu time    0.0045: real time    0.0045
    CHARGE:  cpu time    0.2220: real time    0.2221
    MIXING:  cpu time    0.0020: real time    0.0020
    --------------------------------------------
      LOOP:  cpu time    3.6191: real time    3.6209

 eigenvalue-minimisations  :  3920
 total energy-change (2. order) :-0.3972934E-03  (-0.6061077E-05)
 number of electron     199.9999743 magnetization 
 augmentation part       84.1089166 magnetization 

 Broyden mixing:
  rms(total) = 0.48191E-02    rms(broyden)= 0.48184E-02
  rms(prec ) = 0.75115E-02
  weight for this iteration     100.00

 eigenvalues of (default mixing * dielectric matrix)
  average eigenvalue GAMMA=   1.2218
  4.6218  2.4973  1.9774  1.5351  1.2373  1.2373  1.0023  1.0023  0.8856  0.8856
  0.8325  0.2290  0.1483  0.1972  0.0378

 Free energy of the ion-electron system (eV)
  ---------------------------------------------------
  alpha Z        PSCENC =       333.20445113
  Ewald energy   TEWEN  =    107474.69669589
  -Hartree energ DENC   =   -124327.55376922
  -exchange      EXHF   =         0.00000000
  -V(xc)+E(xc)   XCENC  =      -593.55560970
  PAW double counting   =     18809.46233171   -17610.03263619
  entropy T*S    EENTRO =        -0.47143907
  eigenvalues    EBANDS =      -380.33762448
  atomic energy  EATOM  =     16194.52257001
  Solvation  Ediel_sol  =         0.00000000
  ---------------------------------------------------
  free energy    TOTEN  =      -100.06502994 eV

  energy without entropy =      -99.59359086  energy(sigma->0) =      -99.90788358


--------------------------------------------------------------------------------------------------------




--------------------------------------- Iteration      1(  21)  ---------------------------------------


    POTLOK:  cpu time    0.0172: real time    0.0177
    SETDIJ:  cpu time    0.0026: real time    0.0026
     EDDAV:  cpu time    3.4066: real time    3.4080
       DOS:  cpu time    0.0047: real time    0.0047
    CHARGE:  cpu time    0.2220: real time    0.2220
    MIXING:  cpu time    0.0020: real time    0.0020
    --------------------------------------------
      LOOP:  cpu time    3.6551: real time    3.6569

 eigenvalue-minimisations  :  3968
 total energy-change (2. order) :-0.4274903E-03  (-0.8322895E-05)
 number of electron     199.9999743 magnetization 
 augmentation part       84.1084158 magnetization 

 Broyden mixing:
  rms(total) = 0.17796E-02    rms(broyden)= 0.17785E-02
  rms(prec ) = 0.20458E-02
  weight for this iteration     100.00

 eigenvalues of (default mixing * dielectric matrix)
  average eigenvalue GAMMA=   1.2541
  5.0813  2.6195  2.1688  1.3705  1.3705  1.3350  1.0715  0.9810  0.9810  0.8348
  0.8197  0.8197  0.1483  0.2290  0.1972  0.0378

 Free energy of the ion-electron system (eV)
  ---------------------------------------------------
  alpha Z        PSCENC =       333.20445113
  Ewald energy   TEWEN  =    107474.69669589
  -Hartree energ DENC   =   -124329.66098666
  -exchange      EXHF   =         0.00000000
  -V(xc)+E(xc)   XCENC  =      -593.55227845
  PAW double counting   =     18808.06665657   -17608.63236859
  entropy T*S    EENTRO =        -0.47150549
  eigenvalues    EBANDS =      -378.23869183
  atomic energy  EATOM  =     16194.52257001
  Solvation  Ediel_sol  =         0.00000000
  ---------------------------------------------------
  free energy    TOTEN  =      -100.06545743 eV

  energy without entropy =      -99.59395193  energy(sigma->0) =      -99.90828893


--------------------------------------------------------------------------------------------------------




--------------------------------------- Iteration      1(  22)  ---------------------------------------


    POTLOK:  cpu time    0.0169: real time    0.0171
    SETDIJ:  cpu time    0.0026: real time    0.0026
     EDDAV:  cpu time    3.3944: real time    3.3957
       DOS:  cpu time    0.0045: real time    0.0045
    CHARGE:  cpu time    0.2212: real time    0.2212
    MIXING:  cpu time    0.0021: real time    0.0021
    --------------------------------------------
      LOOP:  cpu time    3.6416: real time    3.6431

 eigenvalue-minimisations  :  3944
 total energy-change (2. order) :-0.2273572E-03  (-0.1248962E-05)
 number of electron     199.9999743 magnetization 
 augmentation part       84.1083675 magnetization 

 Broyden mixing:
  rms(total) = 0.15133E-02    rms(broyden)= 0.15128E-02
  rms(prec ) = 0.22650E-02
  weight for this iteration     100.00

 eigenvalues of (default mixing * dielectric matrix)
  average eigenvalue GAMMA=   1.3208
  5.8085  2.7893  2.2954  1.5028  1.5028  1.2158  1.2158  0.9342  0.9342  0.9114
  0.9114  0.9919  0.8272  0.2290  0.1483  0.1972  0.0378

 Free energy of the ion-electron system (eV)
  ---------------------------------------------------
  alpha Z        PSCENC =       333.20445113
  Ewald energy   TEWEN  =    107474.69669589
  -Hartree energ DENC   =   -124330.28562194
  -exchange      EXHF   =         0.00000000
  -V(xc)+E(xc)   XCENC  =      -593.55236017
  PAW double counting   =     18807.90876374   -17608.47748140
  entropy T*S    EENTRO =        -0.47149337
  eigenvalues    EBANDS =      -377.61120866
  atomic energy  EATOM  =     16194.52257001
  Solvation  Ediel_sol  =         0.00000000
  ---------------------------------------------------
  free energy    TOTEN  =      -100.06568478 eV

  energy without entropy =      -99.59419142  energy(sigma->0) =      -99.90852033


--------------------------------------------------------------------------------------------------------




--------------------------------------- Iteration      1(  23)  ---------------------------------------


    POTLOK:  cpu time    0.0170: real time    0.0172
    SETDIJ:  cpu time    0.0025: real time    0.0025
     EDDAV:  cpu time    3.3412: real time    3.3424
       DOS:  cpu time    0.0046: real time    0.0046
    CHARGE:  cpu time    0.2217: real time    0.2217
    MIXING:  cpu time    0.0022: real time    0.0022
    --------------------------------------------
      LOOP:  cpu time    3.5892: real time    3.5907

 eigenvalue-minimisations  :  3856
 total energy-change (2. order) :-0.2597282E-03  (-0.1209507E-05)
 number of electron     199.9999743 magnetization 
 augmentation part       84.1083534 magnetization 

 Broyden mixing:
  rms(total) = 0.61905E-03    rms(broyden)= 0.61855E-03
  rms(prec ) = 0.85403E-03
  weight for this iteration     100.00

 eigenvalues of (default mixing * dielectric matrix)
  average eigenvalue GAMMA=   1.4039
  6.5614  3.1697  2.4687  1.7752  1.7752  1.2691  1.2691  0.9100  0.9100  0.9140
  0.9140  0.9390  0.9390  0.8435  0.1483  0.2290  0.1972  0.0378

 Free energy of the ion-electron system (eV)
  ---------------------------------------------------
  alpha Z        PSCENC =       333.20445113
  Ewald energy   TEWEN  =    107474.69669589
  -Hartree energ DENC   =   -124330.93381082
  -exchange      EXHF   =         0.00000000
  -V(xc)+E(xc)   XCENC  =      -593.55242196
  PAW double counting   =     18807.77393112   -17608.34265463
  entropy T*S    EENTRO =        -0.47146310
  eigenvalues    EBANDS =      -376.96324214
  atomic energy  EATOM  =     16194.52257001
  Solvation  Ediel_sol  =         0.00000000
  ---------------------------------------------------
  free energy    TOTEN  =      -100.06594451 eV

  energy without entropy =      -99.59448141  energy(sigma->0) =      -99.90879015


--------------------------------------------------------------------------------------------------------




--------------------------------------- Iteration      1(  24)  ---------------------------------------


    POTLOK:  cpu time    0.0171: real time    0.0173
    SETDIJ:  cpu time    0.0025: real time    0.0025
     EDDAV:  cpu time    3.3842: real time    3.3855
       DOS:  cpu time    0.0047: real time    0.0047
    CHARGE:  cpu time    0.2208: real time    0.2208
    MIXING:  cpu time    0.0023: real time    0.0023
    --------------------------------------------
      LOOP:  cpu time    3.6316: real time    3.6331

 eigenvalue-minimisations  :  3936
 total energy-change (2. order) :-0.1444444E-03  (-0.3504502E-06)
 number of electron     199.9999743 magnetization 
 augmentation part       84.1084488 magnetization 

 Broyden mixing:
  rms(total) = 0.58874E-03    rms(broyden)= 0.58854E-03
  rms(prec ) = 0.69622E-03
  weight for this iteration     100.00

 eigenvalues of (default mixing * dielectric matrix)
  average eigenvalue GAMMA=   1.4821
  7.1534  3.8151  2.5305  1.9487  1.9487  1.3292  1.3292  0.9241  0.9241  1.1076
  0.9062  0.9062  0.9495  0.9495  0.8259  0.2290  0.1483  0.1972  0.0378

 Free energy of the ion-electron system (eV)
  ---------------------------------------------------
  alpha Z        PSCENC =       333.20445113
  Ewald energy   TEWEN  =    107474.69669589
  -Hartree energ DENC   =   -124331.27257616
  -exchange      EXHF   =         0.00000000
  -V(xc)+E(xc)   XCENC  =      -593.55262817
  PAW double counting   =     18807.92539074   -17608.49349645
  entropy T*S    EENTRO =        -0.47146818
  eigenvalues    EBANDS =      -376.62502777
  atomic energy  EATOM  =     16194.52257001
  Solvation  Ediel_sol  =         0.00000000
  ---------------------------------------------------
  free energy    TOTEN  =      -100.06608896 eV

  energy without entropy =      -99.59462078  energy(sigma->0) =      -99.90893290


--------------------------------------------------------------------------------------------------------




--------------------------------------- Iteration      1(  25)  ---------------------------------------


    POTLOK:  cpu time    0.0172: real time    0.0174
    SETDIJ:  cpu time    0.0025: real time    0.0025
     EDDAV:  cpu time    3.2893: real time    3.2905
       DOS:  cpu time    0.0046: real time    0.0046
    --------------------------------------------
      LOOP:  cpu time    3.3136: real time    3.3151

 eigenvalue-minimisations  :  3768
 total energy-change (2. order) :-0.6487936E-04  (-0.1578473E-06)
 number of electron     199.9999743 magnetization 
 augmentation part       84.1084488 magnetization 

 Free energy of the ion-electron system (eV)
  ---------------------------------------------------
  alpha Z        PSCENC =       333.20445113
  Ewald energy   TEWEN  =    107474.69669589
  -Hartree energ DENC   =   -124331.42807782
  -exchange      EXHF   =         0.00000000
  -V(xc)+E(xc)   XCENC  =      -593.55277828
  PAW double counting   =     18807.99760975   -17608.56577101
  entropy T*S    EENTRO =        -0.47148552
  eigenvalues    EBANDS =      -376.46936798
  atomic energy  EATOM  =     16194.52257001
  Solvation  Ediel_sol  =         0.00000000
  ---------------------------------------------------
  free energy    TOTEN  =      -100.06615384 eV

  energy without entropy =      -99.59466832  energy(sigma->0) =      -99.90899200


--------------------------------------------------------------------------------------------------------




 average (electrostatic) potential at core
  the test charge radii are     1.1199
  (the norm of the test charge is              1.0000)
       1 -79.4205       2 -79.4205       3 -79.4205       4 -79.7799       5 -79.7799
       6 -79.7799       7 -79.7799       8 -79.8301       9 -79.8301      10 -79.8301
      11 -79.8301      12 -79.7800      13 -79.7800      14 -79.7800      15 -79.7800
      16 -79.4205      17 -79.4205      18 -79.4205      19 -79.4205      20 -79.4205
 
 
 
 E-fermi :   0.4145     XC(G=0):  -5.7017     alpha+bet : -6.2946


 k-point     1 :       0.0625    0.0625    0.0000
  band No.  band energies     occupation 
      1      -6.1213      2.00000
      2      -5.3149      2.00000
      3      -4.6154      2.00000
      4      -4.4942      2.00000
      5      -4.4880      2.00000
      6      -4.4880      2.00000
      7      -4.3967      2.00000
      8      -4.3843      2.00000
      9      -4.3843      2.00000
     10      -4.3579      2.00000
     11      -4.2703      2.00000
     12      -4.2298      2.00000
     13      -4.2283      2.00000
     14      -4.2283      2.00000
     15      -4.1143      2.00000
     16      -4.1019      2.00000
     17      -4.1019      2.00000
     18      -3.8570      2.00000
     19      -3.8478      2.00000
     20      -3.8478      2.00000
     21      -3.7287      2.00000
     22      -3.7166      2.00000
     23      -3.7166      2.00000
     24      -3.6037      2.00000
     25      -3.6036      2.00000
     26      -3.6036      2.00000
     27      -2.8487      2.00000
     28      -2.8487      2.00000
     29      -2.8440      2.00000
     30      -2.4670      2.00000
     31      -2.4670      2.00000
     32      -2.4471      2.00000
     33      -2.3544      2.00000
     34      -2.3421      2.00000
     35      -2.3407      2.00000
     36      -2.3407      2.00000
     37      -2.3090      2.00000
     38      -2.2610      2.00000
     39      -2.2257      2.00000
     40      -2.1591      2.00000
     41      -2.1370      2.00000
     42      -2.1112      2.00000
     43      -2.1090      2.00000
     44      -2.1090      2.00000
     45      -2.0796      2.00000
     46      -2.0427      2.00000
     47      -1.8975      2.00000
     48      -1.8142      2.00000
     49      -1.8125      2.00000
     50      -1.7950      2.00000
     51      -1.7840      2.00000
     52      -1.5883      2.00000
     53      -1.5883      2.00000
     54      -1.5313      2.00000
     55      -1.4248      2.00000
     56      -1.3788      2.00000
     57      -1.3788      2.00000
     58      -1.2181      2.00000
     59      -1.2181      2.00000
     60      -1.2060      2.00000
     61      -0.8330      2.00009
     62      -0.8197      2.00011
     63      -0.8197      2.00011
     64      -0.8027      2.00015
     65      -0.7967      2.00016
     66      -0.7791      2.00020
     67      -0.6401      2.00123
     68      -0.6243      2.00149
     69      -0.4169      2.01230
     70      -0.4062      2.01348
     71      -0.4062      2.01348
     72      -0.3196      2.02623
     73      -0.2043      2.05102
     74      -0.1437      2.06387
     75      -0.1437      2.06387
     76      -0.1067      2.06922
     77      -0.0913      2.07046
     78      -0.0744      2.07091
     79      -0.0744      2.07091
     80       0.0431      2.03204
     81       0.1223      1.94008
     82       0.2607      1.60060
     83       0.2607      1.60060
     84       0.2713      1.56516
     85       0.2756      1.55040
     86       0.3191      1.39112
     87       0.3191      1.39112
     88       0.3414      1.30349
     89       0.3552      1.24788
     90       0.3920      1.09510
     91       0.4055      1.03804
     92       0.4055      1.03804
     93       0.4379      0.90134
     94       0.4379      0.90134
     95       0.4414      0.88662
     96       0.5245      0.55364
     97       0.5245      0.55364
     98       0.5343      0.51731
     99       0.6529      0.16349
    100       0.6529      0.16349
    101       0.6778      0.11113
[...]
    100       0.3875      1.11015
    101       0.4075      1.02554
    102       0.4328      0.91880
    103       0.4328      0.91880
    104       0.5812      0.35499
    105       0.5812      0.35499
    106       0.6514      0.16491
    107       1.6678     -0.00009
    108       2.3266     -0.00000
    109       2.7424     -0.00000
    110       2.7424     -0.00000
    111       3.1481     -0.00000
    112       3.1481     -0.00000
    113       3.4196     -0.00000
    114       3.9666     -0.00000
    115       3.9666     -0.00000
    116       4.2562     -0.00000
    117       4.7927     -0.00000
    118       5.3310     -0.00000
    119       5.3310     -0.00000
    120       5.8868     -0.00000
    121       6.6119     -0.00000
    122       6.9243     -0.00000
    123       7.0521     -0.00000
    124       7.0521     -0.00000
    125       7.2053     -0.00000
    126       7.3596     -0.00000
    127       7.7688     -0.00000
    128       7.9332     -0.00000
    129       8.1742     -0.00000
    130       8.6160     -0.00000
    131       8.6160     -0.00000
    132       8.6589     -0.00000
    133       8.8600     -0.00000
    134       8.8600     -0.00000
    135       8.9804     -0.00000
    136       9.2918     -0.00000
    137       9.4567     -0.00000
    138       9.4567     -0.00000
    139       9.9612     -0.00000
    140       9.9612     -0.00000
    141      10.0965     -0.00000
    142      10.1244     -0.00000
    143      10.1244     -0.00000
    144      10.2528     -0.00000

 k-point    20 :      -0.4375    0.4375    0.0000
  band No.  band energies     occupation 
      1      -4.5699      2.00000
      2      -4.5699      2.00000
      3      -4.0723      2.00000
      4      -4.0723      2.00000
      5      -3.8036      2.00000
      6      -3.7976      2.00000
      7      -3.7969      2.00000
      8      -3.7969      2.00000
      9      -3.7607      2.00000
     10      -3.7219      2.00000
     11      -3.5536      2.00000
     12      -3.4919      2.00000
     13      -3.4919      2.00000
     14      -3.4610      2.00000
     15      -3.3976      2.00000
     16      -3.3976      2.00000
     17      -3.3968      2.00000
     18      -3.2841      2.00000
     19      -3.2463      2.00000
     20      -3.1464      2.00000
     21      -3.1358      2.00000
     22      -3.1358      2.00000
     23      -3.1272      2.00000
     24      -3.0579      2.00000
     25      -2.9759      2.00000
     26      -2.9759      2.00000
     27      -2.9724      2.00000
     28      -2.9632      2.00000
     29      -2.9474      2.00000
     30      -2.8064      2.00000
     31      -2.7644      2.00000
     32      -2.7644      2.00000
     33      -2.6089      2.00000
     34      -2.5920      2.00000
     35      -2.5900      2.00000
     36      -2.5900      2.00000
     37      -2.5247      2.00000
     38      -2.4656      2.00000
     39      -2.3012      2.00000
     40      -2.3012      2.00000
     41      -2.2864      2.00000
     42      -2.1625      2.00000
     43      -2.1431      2.00000
     44      -2.1287      2.00000
     45      -2.0470      2.00000
     46      -2.0470      2.00000
     47      -1.9168      2.00000
     48      -1.9168      2.00000
     49      -1.8789      2.00000
     50      -1.8789      2.00000
     51      -1.8415      2.00000
     52      -1.7534      2.00000
     53      -1.7327      2.00000
     54      -1.7280      2.00000
     55      -1.7280      2.00000
     56      -1.6977      2.00000
     57      -1.6766      2.00000
     58      -1.5843      2.00000
     59      -1.5780      2.00000
     60      -1.5780      2.00000
     61      -1.5631      2.00000
     62      -1.5181      2.00000
     63      -1.4929      2.00000
     64      -1.4929      2.00000
     65      -1.2848      2.00000
     66      -1.1942      2.00000
     67      -1.1942      2.00000
     68      -1.1675      2.00000
     69      -1.1675      2.00000
     70      -1.1346      2.00000
     71      -1.0450      2.00000
     72      -1.0450      2.00000
     73      -0.9860      2.00001
     74      -0.9485      2.00002
     75      -0.8672      2.00006
     76      -0.8426      2.00008
     77      -0.8426      2.00008
     78      -0.7324      2.00039
     79      -0.7324      2.00039
     80      -0.7115      2.00051
     81      -0.6189      2.00160
     82      -0.5387      2.00388
     83      -0.5387      2.00388
     84      -0.5245      2.00450
     85      -0.4628      2.00823
     86      -0.4628      2.00823
     87      -0.4472      2.00949
     88      -0.3053      2.02909
     89      -0.3023      2.02966
     90      -0.3023      2.02966
     91      -0.1999      2.05225
     92      -0.1999      2.05225
     93      -0.0694      2.07082
     94       0.0352      2.03713
     95       0.0363      2.03631
     96       0.0363      2.03631
     97       0.2684      1.57160
     98       0.3103      1.42109
     99       0.3103      1.42109
    100       0.3321      1.33695
    101       0.3416      1.29917
    102       0.3548      1.24568
    103       0.4875      0.69293
    104       0.4990      0.64757
    105       0.5754      0.37347
    106       0.5754      0.37347
    107       1.6212     -0.00017
    108       1.8784     -0.00000
    109       2.0847     -0.00000
    110       2.0847     -0.00000
    111       2.6525     -0.00000
    112       3.9296     -0.00000
    113       3.9296     -0.00000
    114       4.0539     -0.00000
    115       4.1247     -0.00000
    116       4.5856     -0.00000
    117       5.4531     -0.00000
    118       5.4531     -0.00000
    119       5.4543     -0.00000
    120       5.9886     -0.00000
    121       6.7079     -0.00000
    122       7.0381     -0.00000
    123       7.0381     -0.00000
    124       7.4049     -0.00000
    125       7.4049     -0.00000
    126       7.6171     -0.00000
    127       7.6171     -0.00000
    128       7.7948     -0.00000
    129       7.9790     -0.00000
    130       8.1759     -0.00000
    131       8.4843     -0.00000
    132       8.6346     -0.00000
    133       8.6346     -0.00000
    134       8.9050     -0.00000
    135       8.9708     -0.00000
    136       9.0160     -0.00000
    137       9.0160     -0.00000
    138       9.0247     -0.00000
    139       9.4902     -0.00000
    140       9.4987     -0.00000
    141       9.5140     -0.00000
    142      10.2697     -0.00000
    143      10.4943     -0.00000
    144      10.4943     -0.00000


--------------------------------------------------------------------------------------------------------


 soft charge-density along one line, spin component           1
         0         1         2         3         4         5         6         7         8         9
 total charge-density along one line
 
 pseudopotential strength for first ion, spin component:           1
 -6.500   0.000  -0.000  -0.008  -0.000  -6.558   0.000  -0.000
  0.000  -6.394  -0.000   0.000  -0.008   0.000  -6.456  -0.000
 -0.000  -0.000  -6.390  -0.000  -0.000  -0.000  -0.000  -6.453
 -0.008   0.000  -0.000  -6.394   0.000  -0.008   0.000  -0.000
 -0.000  -0.008  -0.000   0.000  -6.500  -0.000  -0.008  -0.000
 -6.558   0.000  -0.000  -0.008  -0.000  -6.589   0.000  -0.000
  0.000  -6.456  -0.000   0.000  -0.008   0.000  -6.493  -0.000
 -0.000  -0.000  -6.453  -0.000  -0.000  -0.000  -0.000  -6.489
 -0.008   0.000  -0.000  -6.456   0.000  -0.007   0.000  -0.000
 -0.000  -0.008  -0.000   0.000  -6.558  -0.000  -0.007  -0.000
 -0.000  -0.000  -0.027  -0.000  -0.000  -0.000  -0.000  -0.026
 -0.000  -0.000  -0.046  -0.000  -0.000  -0.000  -0.000  -0.044
 -0.000  -0.013  -0.000  -0.000   0.000  -0.000  -0.012  -0.000
 -0.000  -0.000  -0.015  -0.000  -0.000  -0.000  -0.000  -0.014
  0.000  -0.000  -0.000  -0.013  -0.000   0.000  -0.000  -0.000
 -0.000  -0.014  -0.000  -0.000   0.000  -0.000  -0.013  -0.000
 -0.000  -0.000  -0.016  -0.000  -0.000  -0.000  -0.000  -0.016
  0.000  -0.000  -0.000  -0.014  -0.000   0.000  -0.000  -0.000
 total augmentation occupancy for first ion, spin component:           1
  2.317   0.000  -0.000  -0.110  -0.000  -1.130  -0.000   0.000   0.009   0.000  -0.000   0.000   0.000   0.000  -0.026   0.000
  0.000   2.719   0.000   0.000  -0.110  -0.000  -1.072  -0.000  -0.000   0.013  -0.000   0.000  -0.163   0.000  -0.000  -0.006
 -0.000   0.000   2.676   0.000  -0.000   0.000  -0.000  -1.241   0.000   0.000   0.681  -0.168   0.000  -0.142   0.000  -0.000
 -0.110   0.000   0.000   2.719   0.000   0.013  -0.000   0.000  -1.072  -0.000   0.000  -0.000  -0.000   0.000  -0.163  -0.000
 -0.000  -0.110  -0.000  -0.000   2.317  -0.000   0.009   0.000  -0.000  -1.130  -0.000   0.000  -0.026   0.000  -0.000   0.002
 -1.130  -0.000   0.000   0.013   0.000   1.669   0.000  -0.000   0.059  -0.000   0.000  -0.000  -0.000  -0.000   0.031   0.000
 -0.000  -1.072  -0.000  -0.000   0.009   0.000   1.297  -0.000   0.000   0.059   0.000   0.000   0.176  -0.000   0.000  -0.014
  0.000  -0.000  -1.241  -0.000   0.000  -0.000  -0.000   1.611  -0.000  -0.000  -0.463   0.048  -0.000   0.226  -0.000   0.000
  0.009  -0.000   0.000  -1.072  -0.000   0.059   0.000  -0.000   1.297   0.000  -0.000   0.000   0.000   0.000   0.176  -0.000
 -0.000   0.013   0.000  -0.000  -1.130  -0.000   0.059  -0.000   0.000   1.669   0.000  -0.000   0.031  -0.000   0.000  -0.002
 -0.000  -0.000   0.681   0.000  -0.000  -0.000   0.000  -0.463  -0.000   0.000   1.863  -0.279  -0.000   0.181  -0.000  -0.000
  0.000   0.000  -0.168   0.000   0.000  -0.000   0.000   0.048   0.000  -0.000  -0.279   0.049   0.000  -0.037  -0.000   0.000
  0.000  -0.163   0.000  -0.000  -0.026  -0.000   0.176  -0.000   0.000   0.031  -0.000  -0.000   0.199   0.000   0.000  -0.011
  0.000   0.000  -0.142   0.000   0.000  -0.000   0.000   0.226   0.000  -0.000   0.181  -0.037   0.000   0.115  -0.000  -0.000
 -0.026  -0.000   0.000  -0.163  -0.000   0.031   0.000  -0.000   0.176   0.000  -0.000  -0.000   0.000   0.000   0.199  -0.000
  0.000  -0.006  -0.000  -0.000   0.002   0.000  -0.014   0.000  -0.000  -0.002  -0.000  -0.000  -0.011   0.000  -0.000   0.001
  0.000   0.000  -0.014  -0.000   0.000   0.000  -0.000  -0.015   0.000   0.000  -0.023   0.005   0.000  -0.008   0.000  -0.000
  0.002  -0.000  -0.000  -0.006   0.000  -0.002  -0.000   0.000  -0.014   0.000  -0.000   0.000  -0.000   0.000  -0.011   0.000


------------------------ aborting loop because EDIFF is reached ----------------------------------------


    CHARGE:  cpu time    0.2199: real time    0.2201
    FORLOC:  cpu time    0.0026: real time    0.0026
    FORNL :  cpu time    0.7725: real time    0.7728
    STRESS:  cpu time    2.3213: real time    2.3220
    FORCOR:  cpu time    0.0184: real time    0.0184
    FORHAR:  cpu time    0.0062: real time    0.0062
    MIXING:  cpu time    0.0009: real time    0.0009
    OFIELD:  cpu time    0.0000: real time    0.0000

  FORCE on cell =-STRESS in cart. coord.  units (eV):
  Direction    XX          YY          ZZ          XY          YZ          ZX
  --------------------------------------------------------------------------------------
  Alpha Z   333.20445   333.20445   333.20445
  Ewald  118606.92926118606.92926************     0.00000     0.00000     0.00000
  Hartree122767.14046122767.14046************     0.00000    -0.00000    -0.00000
  E(xc)   -1045.04897 -1045.04897 -1049.83541     0.00001     0.00000     0.00000
  Local  ************************247456.48312     0.00121    -0.00009    -0.00016
  n-local   -62.18084  -117.29563  -108.27248   -15.14968    -2.42696     1.30695
  augment  1476.43122  1476.43226  1500.75296    -0.00091     0.00003     0.00004
  Kinetic  2723.71363  2696.88134  2754.93460    -7.21251    -4.52583     2.71422
  Fock        0.00000     0.00000     0.00000     0.00000     0.00000     0.00000
  -------------------------------------------------------------------------------------
  Total      -9.59568    -9.59568    -2.63179     0.00000     0.00000     0.00000
  in kB     -19.64964   -19.64964    -5.38928     0.00000     0.00000     0.00000
  external pressure =      -14.90 kB  Pullay stress =        0.00 kB


 VOLUME and BASIS-vectors are now :
 -----------------------------------------------------------------------------
  energy-cutoff  :      350.00
  volume of cell :      782.41
      direct lattice vectors                 reciprocal lattice vectors
     5.572001436  0.000000000  0.000000000     0.179468726 -0.103616317  0.000000000
     2.786000718  4.825494793  0.000000000     0.000000000  0.207232635  0.000000000
     0.000000000  0.000000000 29.099040242     0.000000000  0.000000000  0.034365395

  length of vectors
     5.572001436  5.572001436 29.099040242     0.207232635  0.207232635  0.034365395


 FORCES acting on ions
    electron-ion (+dipol)            ewald-force                    non-local-force                 convergence-correction
 -----------------------------------------------------------------------------------------------
   0.108E-07 0.626E-08 0.327E+04   -.108E-11 -.612E-12 -.327E+04   0.138E-17 -.651E-18 -.254E+01   -.389E-09 -.225E-09 -.353E+00
   -.526E-06 -.304E-06 -.327E+04   0.101E-11 0.596E-12 0.327E+04   0.282E-17 -.867E-18 0.251E+01   0.113E-08 0.649E-09 0.480E+00
   -.526E-06 -.304E-06 -.327E+04   0.104E-11 0.590E-12 0.327E+04   0.339E-17 -.922E-18 0.251E+01   0.113E-08 0.649E-09 0.480E+00
   0.160E-06 0.923E-07 -.164E+04   -.331E-11 -.188E-11 0.164E+04   -.222E-17 0.108E-17 0.116E+00   0.301E-08 0.174E-08 0.987E+00
   0.160E-06 0.923E-07 -.164E+04   -.329E-11 -.188E-11 0.164E+04   -.534E-17 -.705E-18 0.116E+00   0.301E-08 0.174E-08 0.987E+00
   0.160E-06 0.923E-07 -.164E+04   -.328E-11 -.187E-11 0.164E+04   0.840E-18 0.103E-17 0.116E+00   0.301E-08 0.174E-08 0.987E+00
   0.160E-06 0.923E-07 -.164E+04   -.325E-11 -.187E-11 0.164E+04   -.230E-17 -.152E-17 0.116E+00   0.301E-08 0.174E-08 0.987E+00
   0.839E-06 0.484E-06 -.462E+00   0.336E-11 0.192E-11 -.119E+00   0.259E-19 -.593E-20 -.276E-01   -.298E-08 -.172E-08 0.588E+00
   0.839E-06 0.484E-06 -.462E+00   0.337E-11 0.191E-11 -.119E+00   -.805E-20 -.398E-19 -.276E-01   -.298E-08 -.172E-08 0.588E+00
   0.839E-06 0.484E-06 -.462E+00   0.338E-11 0.193E-11 -.119E+00   0.172E-19 -.398E-19 -.276E-01   -.298E-08 -.172E-08 0.588E+00
   0.839E-06 0.484E-06 -.462E+00   0.339E-11 0.194E-11 -.119E+00   -.156E-19 -.593E-20 -.276E-01   -.298E-08 -.172E-08 0.588E+00
   -.824E-06 -.476E-06 0.164E+04   -.569E-13 -.709E-13 -.164E+04   0.922E-18 0.173E-17 -.580E-01   0.668E-09 0.386E-09 -.146E+00
   -.824E-06 -.476E-06 0.164E+04   -.641E-13 -.637E-13 -.164E+04   0.268E-17 -.813E-18 -.580E-01   0.668E-09 0.385E-09 -.146E+00
   -.824E-06 -.476E-06 0.164E+04   -.397E-13 -.498E-13 -.164E+04   0.949E-18 -.428E-17 -.580E-01   0.668E-09 0.386E-09 -.146E+00
   -.824E-06 -.476E-06 0.164E+04   -.174E-13 -.578E-13 -.164E+04   0.257E-17 0.000E+00 -.580E-01   0.669E-09 0.386E-09 -.146E+00
   0.108E-07 0.626E-08 0.327E+04   -.105E-11 -.588E-12 -.327E+04   -.488E-18 -.152E-17 -.254E+01   -.389E-09 -.225E-09 -.353E+00
   0.108E-07 0.626E-08 0.327E+04   -.102E-11 -.607E-12 -.327E+04   0.179E-17 -.108E-17 -.254E+01   -.390E-09 -.225E-09 -.353E+00
   0.108E-07 0.626E-08 0.327E+04   -.101E-11 -.593E-12 -.327E+04   0.168E-17 0.651E-18 -.254E+01   -.389E-09 -.225E-09 -.353E+00
   -.526E-06 -.304E-06 -.327E+04   0.103E-11 0.626E-12 0.327E+04   0.154E-17 -.184E-17 0.251E+01   0.113E-08 0.651E-09 0.480E+00
   -.526E-06 -.304E-06 -.327E+04   0.106E-11 0.625E-12 0.327E+04   0.184E-17 -.922E-18 0.251E+01   0.113E-08 0.650E-09 0.480E+00
 -----------------------------------------------------------------------------------------------
   -.136E-05 -.786E-06 -.623E+01   0.188E-12 -.542E-15 -.909E-12   0.121E-16 -.107E-16 0.293E-01   0.572E-08 0.330E-08 0.623E+01
 
 
 POSITION                                       TOTAL-FORCE (eV/Angst)
 -----------------------------------------------------------------------------------
      5.57200      1.60850     10.00000        -0.000000     -0.000000     -0.014064
      2.78600     -0.00000     19.10025         0.000000     -0.000000     -0.015897
     -0.00000     -0.00000     19.10025         0.000000     -0.000000     -0.015897
      4.17900      4.02125     16.81912        -0.000000     -0.000000     -0.012169
      6.96500      4.02125     16.81912        -0.000000     -0.000000     -0.012169
      2.78600      1.60850     16.81912        -0.000000     -0.000000     -0.012169
      5.57200      1.60850     16.81912        -0.000000     -0.000000     -0.012169
      5.57200      3.21700     14.54918        -0.000000      0.000000     -0.022612
      2.78600      3.21700     14.54918        -0.000000     -0.000000     -0.022612
      4.17900      0.80425     14.54918        -0.000000      0.000000     -0.022612
      1.39300      0.80425     14.54918         0.000000      0.000000     -0.022612
      4.17900      2.41275     12.27476         0.000000      0.000000      0.064741
      1.39300      2.41275     12.27476         0.000000      0.000000      0.064741
      2.78600      0.00000     12.27476         0.000000      0.000000      0.064741
      0.00000      0.00000     12.27476        -0.000000      0.000000      0.064741
      4.17900      4.02125     10.00000        -0.000000     -0.000000     -0.014064
      6.96500      4.02125     10.00000         0.000000     -0.000000     -0.014064
      2.78600      1.60850     10.00000         0.000000     -0.000000     -0.014064
      1.39300      2.41275     19.10025         0.000000     -0.000000     -0.015897
      4.17900      2.41275     19.10025         0.000000     -0.000000     -0.015897
 -----------------------------------------------------------------------------------
    total drift:                               -0.000001     -0.000001      0.029454


--------------------------------------------------------------------------------------------------------



  FREE ENERGIE OF THE ION-ELECTRON SYSTEM (eV)
  ---------------------------------------------------
  free  energy   TOTEN  =      -100.06701169 eV

  energy  without entropy=      -99.59730726  energy(sigma->0) =      -99.91044355
 
 d Force = 0.1668475E-03[ 0.878E-04, 0.246E-03]  d Energy = 0.2299549E-03-0.631E-04
 d Force =-0.7741489E+01[-0.775E+01,-0.774E+01]  d Ewald  =-0.7741488E+01-0.252E-06


--------------------------------------------------------------------------------------------------------


    POTLOK:  cpu time    0.0198: real time    0.0198


--------------------------------------------------------------------------------------------------------




--------------------------------------------------------------------------------------------------------


  
 reached required accuracy - stopping structural energy minimisation
     LOOP+:  cpu time   24.7790: real time   24.8165
    4ORBIT:  cpu time    0.0000: real time    0.0000

 total amount of memory used by VASP MPI-rank0    53093. kBytes
=======================================================================

   base      :      30000. kBytes
   nonlr-proj:       1711. kBytes
   fftplans  :       1501. kBytes
   grid      :       2141. kBytes
   one-center:         46. kBytes
   wavefun   :      17694. kBytes
 
  
  
 General timing and accounting informations for this job:
 ========================================================
  
                  Total CPU time used (sec):      166.372
                            User time (sec):      165.494
                          System time (sec):        0.878
                         Elapsed time (sec):      166.680
  
                   Maximum memory used (kb):       98384.
                   Average memory used (kb):           0.
  
                          Minor page faults:        49708
                          Major page faults:            0
                 Voluntary context switches:          759
