       N       E                     dE             d eps       ncg     rms          rms(c)
DAV:   1     0.101379639094E+04    0.10138E+04   -0.58198E+04 19320   0.103E+03
DAV:   2    -0.293154044828E+02   -0.10431E+04   -0.96960E+03 23840   0.258E+02
DAV:   3    -0.120997883666E+03   -0.91682E+02   -0.84835E+02 23096   0.755E+01
DAV:   4    -0.125416359925E+03   -0.44185E+01   -0.41956E+01 25720   0.167E+01
DAV:   5    -0.125561581649E+03   -0.14522E+00   -0.14402E+00 26828   0.299E+00    0.425E+01
DAV:   6    -0.120056197408E+03    0.55054E+01   -0.32019E+01 22608   0.228E+01    0.347E+01
DAV:   7    -0.171848193003E+03   -0.51792E+02   -0.22853E+02 28852   0.791E+01    0.576E+01
DAV:   8    -0.145500743775E+03    0.26347E+02   -0.10404E+02 27552   0.451E+01    0.454E+01
DAV:   9    -0.134096933817E+03    0.11404E+02   -0.58493E+01 33064   0.455E+01    0.315E+01
DAV:  10    -0.119174933073E+03    0.14922E+02   -0.41861E+01 26872   0.346E+01    0.181E+01
DAV:  11    -0.117256190085E+03    0.19187E+01   -0.24306E+01 27868   0.188E+01    0.143E+01
DAV:  12    -0.116017421297E+03    0.12388E+01   -0.79229E+00 25864   0.103E+01    0.571E+00
DAV:  13    -0.115873085872E+03    0.14434E+00   -0.49449E-01 27244   0.324E+00    0.447E+00
DAV:  14    -0.115826807827E+03    0.46278E-01   -0.10251E-01 22884   0.158E+00    0.403E+00
DAV:  15    -0.115825218935E+03    0.15889E-02   -0.16522E-01 24684   0.169E+00    0.288E+00
DAV:  16    -0.115797505021E+03    0.27714E-01   -0.17932E-01 21296   0.185E+00    0.130E+00
DAV:  17    -0.115779729610E+03    0.17775E-01   -0.52121E-02 22740   0.101E+00    0.882E-01
DAV:  18    -0.115775215922E+03    0.45137E-02   -0.23315E-02 25996   0.594E-01    0.545E-01
DAV:  19    -0.115772986836E+03    0.22291E-02   -0.53335E-03 21560   0.306E-01    0.426E-01
DAV:  20    -0.115771248833E+03    0.17380E-02   -0.41153E-03 26672   0.286E-01    0.303E-01
DAV:  21    -0.115770915121E+03    0.33371E-03   -0.26165E-03 22532   0.224E-01    0.226E-01
DAV:  22    -0.115770779535E+03    0.13559E-03   -0.12015E-03 21424   0.147E-01    0.197E-01
DAV:  23    -0.115770369734E+03    0.40980E-03   -0.56513E-04 24076   0.122E-01    0.114E-01
DAV:  24    -0.115770228317E+03    0.14142E-03   -0.50875E-04 24776   0.920E-02    0.388E-02
DAV:  25    -0.115770251587E+03   -0.23270E-04   -0.73738E-05 19016   0.371E-02    0.284E-02
DAV:  26    -0.115770315255E+03   -0.63668E-04   -0.60958E-05 16708   0.336E-02    0.315E-02
DAV:  27    -0.115770407892E+03   -0.92637E-04   -0.67300E-05 17456   0.399E-02    0.376E-02
DAV:  28    -0.115770553972E+03   -0.14608E-03   -0.81196E-05 15932   0.386E-02    0.196E-02
DAV:  29    -0.115770633365E+03   -0.79394E-04   -0.20490E-05 13268   0.163E-02    0.232E-02
DAV:  30    -0.115770720498E+03   -0.87132E-04   -0.12811E-05 11456   0.137E-02    0.116E-02
DAV:  31    -0.115770795815E+03   -0.75318E-04   -0.51360E-06 12392   0.745E-03    0.118E-02
DAV:  32    -0.115770844407E+03   -0.48592E-04   -0.66858E-06 11132   0.102E-02    0.405E-03
DAV:  33    -0.115770862547E+03   -0.18140E-04   -0.15161E-06 10676   0.450E-03    0.482E-03
DAV:  34    -0.115770868869E+03   -0.63224E-05   -0.65482E-07 10048   0.292E-03
   1 F= -.11577071E+03 E0= -.11576613E+03  d E =-.137443E-01
