       N       E                     dE             d eps       ncg     rms          rms(c)
DAV:   1     0.101333776896E+04    0.10133E+04   -0.58210E+04 19336   0.103E+03
DAV:   2    -0.298947686814E+02   -0.10432E+04   -0.97080E+03 23880   0.258E+02
DAV:   3    -0.121304508730E+03   -0.91410E+02   -0.84650E+02 23136   0.753E+01
DAV:   4    -0.125684166483E+03   -0.43797E+01   -0.41554E+01 25728   0.166E+01
DAV:   5    -0.125829041983E+03   -0.14488E+00   -0.14341E+00 26996   0.297E+00    0.425E+01
DAV:   6    -0.118980543976E+03    0.68485E+01   -0.29464E+01 21900   0.203E+01    0.312E+01
DAV:   7    -0.142695751793E+03   -0.23715E+02   -0.10017E+02 24040   0.559E+01    0.443E+01
DAV:   8    -0.120501215213E+03    0.22195E+02   -0.40929E+01 25316   0.322E+01    0.194E+01
DAV:   9    -0.123694323609E+03   -0.31931E+01   -0.51980E+01 22532   0.316E+01    0.250E+01
DAV:  10    -0.124939085827E+03   -0.12448E+01   -0.28658E+01 27352   0.345E+01    0.279E+01
DAV:  11    -0.118351634377E+03    0.65875E+01   -0.24591E+01 32856   0.275E+01    0.151E+01
DAV:  12    -0.116098959115E+03    0.22527E+01   -0.74079E+00 22936   0.123E+01    0.419E+00
DAV:  13    -0.116073019705E+03    0.25939E-01   -0.62769E-01 21592   0.308E+00    0.272E+00
DAV:  14    -0.116056635017E+03    0.16385E-01   -0.13083E-01 26916   0.164E+00    0.176E+00
DAV:  15    -0.116075164714E+03   -0.18530E-01   -0.10857E-01 28192   0.148E+00    0.231E+00
DAV:  16    -0.116052919378E+03    0.22245E-01   -0.11469E-01 27892   0.150E+00    0.106E+00
DAV:  17    -0.116047387659E+03    0.55317E-02   -0.37633E-02 26656   0.883E-01    0.604E-01
DAV:  18    -0.116045941650E+03    0.14460E-02   -0.98659E-03 23268   0.439E-01    0.413E-01
DAV:  19    -0.116046096909E+03   -0.15526E-03   -0.29256E-03 25620   0.203E-01    0.428E-01
DAV:  20    -0.116045880118E+03    0.21679E-03   -0.22277E-03 21688   0.189E-01    0.253E-01
DAV:  21    -0.116045897247E+03   -0.17128E-04   -0.14288E-03 27920   0.145E-01    0.175E-01
DAV:  22    -0.116045860935E+03    0.36311E-04   -0.38806E-04 21840   0.921E-02    0.107E-01
DAV:  23    -0.116045907026E+03   -0.46090E-04   -0.84887E-05 19036   0.423E-02    0.844E-02
DAV:  24    -0.116045975130E+03   -0.68104E-04   -0.86447E-05 13316   0.422E-02    0.569E-02
DAV:  25    -0.116046119936E+03   -0.14481E-03   -0.18592E-04 21716   0.565E-02    0.245E-02
DAV:  26    -0.116046179949E+03   -0.60013E-04   -0.25349E-05 12200   0.205E-02    0.210E-02
DAV:  27    -0.116046213953E+03   -0.34004E-04   -0.16467E-05 10700   0.186E-02    0.146E-02
DAV:  28    -0.116046319100E+03   -0.10515E-03   -0.79072E-06 11964   0.130E-02    0.130E-02
DAV:  29    -0.116046492468E+03   -0.17337E-03   -0.16932E-05 12608   0.169E-02    0.140E-02
DAV:  30    -0.116046644154E+03   -0.15169E-03   -0.16910E-05 12864   0.133E-02    0.211E-02
DAV:  31    -0.116046676011E+03   -0.31856E-04   -0.52435E-06 10940   0.971E-03    0.113E-02
DAV:  32    -0.116046720648E+03   -0.44637E-04   -0.30316E-06 11568   0.609E-03    0.728E-03
DAV:  33    -0.116046731592E+03   -0.10944E-04   -0.12134E-06 10596   0.390E-03    0.363E-03
DAV:  34    -0.116046741638E+03   -0.10046E-04   -0.47002E-07 10516   0.229E-03    0.207E-03
DAV:  35    -0.116046747694E+03   -0.60561E-05   -0.30916E-07 10120   0.208E-03
   1 F= -.11604631E+03 E0= -.11603304E+03  d E =-.398016E-01
