 vasp.5.4.4.18Apr17-6-g9f103f2a35 (build Apr 28 2017 10:53:45) complex          
  
 executed on             LinuxIFC date 2019.07.18  18:10:55
 running on   16 total cores
 distrk:  each k-point on   16 cores,    1 groups
 distr:  one band on NCORES_PER_BAND=   4 cores,    4 groups


--------------------------------------------------------------------------------------------------------


 INCAR:
 POTCAR:    PAW_PBE Au 04Oct2007                  
 POTCAR:    PAW_PBE C 08Apr2002                   
 POTCAR:    PAW_PBE H 15Jun2001                   
 POTCAR:    PAW_PBE Ir 06Sep2000                  
 POTCAR:    PAW_PBE Pt 04Feb2005                  
 POTCAR:    PAW_PBE Au 04Oct2007                  
   VRHFIN =Au: s1d10                                                            
   LEXCH  = PE                                                                  
   EATOM  =   926.0867 eV,   68.0654 Ry                                         
                                                                                
   TITEL  = PAW_PBE Au 04Oct2007                                                
   LULTRA =        F    use ultrasoft PP ?                                      
   IUNSCR =        1    unscreen: 0-lin 1-nonlin 2-no                           
   RPACOR =    2.330    partial core radius                                     
   POMASS =  196.966; ZVAL   =   11.000    mass and valenz                      
   RCORE  =    2.500    outmost cutoff radius                                   
   RWIGS  =    2.840; RWIGS  =    1.503    wigner-seitz radius (au A)           
   ENMAX  =  229.943; ENMIN  =  172.457 eV                                      
   ICORE  =        3    local potential                                         
   LCOR   =        T    correct aug charges                                     
   LPAW   =        T    paw PP                                                  
   EAUG   =  356.670                                                            
   DEXC   =    0.000                                                            
   RMAX   =    2.562    core radius for proj-oper                               
   RAUG   =    1.300    factor for augmentation sphere                          
   RDEP   =    2.598    radius for radial grids                                 
   RDEPT  =    2.193    core radius for aug-charge                              
                                                                                
   Atomic configuration                                                         
   16 entries                                                                   
     n  l   j            E        occ.                                          
     1  0  0.50    -80748.5001   2.0000                                         
     2  0  0.50    -14244.7466   2.0000                                         
     2  1  1.50    -12310.9591   6.0000                                         
     3  0  0.50     -3362.1768   2.0000                                         
     3  1  1.50     -2801.5463   6.0000                                         
     3  2  2.50     -2203.8206  10.0000                                         
     4  0  0.50      -729.8168   2.0000                                         
     4  1  1.50      -546.0527   6.0000                                         
     4  2  2.50      -325.7302  10.0000                                         
     4  3  3.50       -81.1472  14.0000                                         
     5  0  0.50      -108.3201   2.0000                                         
     5  1  1.50       -59.7479   6.0000                                         
     5  2  2.50        -6.8783  10.0000                                         
     6  0  0.50        -5.7602   1.0000                                         
     6  1  1.50        -6.8029   0.0000                                         
     5  3  2.50        -1.3606   0.0000                                         
   Description                                                                  
     l       E           TYP  RCUT    TYP  RCUT                                 
     2     -6.8782861     23  2.500                                             
     2     -8.2388687     23  2.500                                             
     0     -5.7601759     23  2.500                                             
     0     -0.8493231     23  2.500                                             
     1     -2.7211652     23  2.500                                             
     1     27.2116520     23  2.500                                             
     3     -1.3605826     23  2.500                                             
  local pseudopotential read in
  partial core-charges read in
  partial kinetic energy density read in
  atomic valenz-charges read in
  non local Contribution for L=           2  read in
    real space projection operators read in
  non local Contribution for L=           2  read in
    real space projection operators read in
  non local Contribution for L=           0  read in
    real space projection operators read in
  non local Contribution for L=           0  read in
    real space projection operators read in
  non local Contribution for L=           1  read in
    real space projection operators read in
  non local Contribution for L=           1  read in
    real space projection operators read in
    PAW grid and wavefunctions read in
 
   number of l-projection  operators is LMAX  =           6
   number of lm-projection operators is LMMAX =          18
 
 POTCAR:    PAW_PBE C 08Apr2002                   
   VRHFIN =C: s2p2                                                              
   LEXCH  = PE                                                                  
   EATOM  =   147.1560 eV,   10.8157 Ry                                         
                                                                                
   TITEL  = PAW_PBE C 08Apr2002                                                 
   LULTRA =        F    use ultrasoft PP ?                                      
   IUNSCR =        1    unscreen: 0-lin 1-nonlin 2-no                           
   RPACOR =    1.200    partial core radius                                     
   POMASS =   12.011; ZVAL   =    4.000    mass and valenz                      
   RCORE  =    1.500    outmost cutoff radius                                   
   RWIGS  =    1.630; RWIGS  =    0.863    wigner-seitz radius (au A)           
   ENMAX  =  400.000; ENMIN  =  300.000 eV                                      
   ICORE  =        2    local potential                                         
   LCOR   =        T    correct aug charges                                     
   LPAW   =        T    paw PP                                                  
   EAUG   =  644.873                                                            
   DEXC   =    0.000                                                            
   RMAX   =    1.529    core radius for proj-oper                               
   RAUG   =    1.300    factor for augmentation sphere                          
   RDEP   =    1.501    radius for radial grids                                 
   RDEPT  =    1.300    core radius for aug-charge                              
                                                                                
   Atomic configuration                                                         
    4 entries                                                                   
     n  l   j            E        occ.                                          
     1  0  0.50      -273.3789   2.0000                                         
     2  0  0.50       -13.7508   2.0000                                         
     2  1  0.50        -5.2854   2.0000                                         
     3  2  1.50        -5.4423   0.0000                                         
   Description                                                                  
     l       E           TYP  RCUT    TYP  RCUT                                 
     0    -13.7508458     23  1.200                                             
     0     -8.2022199     23  1.200                                             
     1     -5.2854383     23  1.500                                             
     1     34.0145650     23  1.500                                             
     2     -5.4423304      7  1.500                                             
  local pseudopotential read in
  partial core-charges read in
  partial kinetic energy density read in
  atomic valenz-charges read in
  non local Contribution for L=           0  read in
    real space projection operators read in
  non local Contribution for L=           0  read in
    real space projection operators read in
  non local Contribution for L=           1  read in
    real space projection operators read in
  non local Contribution for L=           1  read in
    real space projection operators read in
    PAW grid and wavefunctions read in
 
   number of l-projection  operators is LMAX  =           4
   number of lm-projection operators is LMMAX =           8
 
 POTCAR:    PAW_PBE H 15Jun2001                   
   VRHFIN =H: ultrasoft test                                                    
   LEXCH  = PE                                                                  
   EATOM  =    12.4884 eV,    0.9179 Ry                                         
                                                                                
   TITEL  = PAW_PBE H 15Jun2001                                                 
   LULTRA =        F    use ultrasoft PP ?                                      
   IUNSCR =        0    unscreen: 0-lin 1-nonlin 2-no                           
   RPACOR =    0.000    partial core radius                                     
   POMASS =    1.000; ZVAL   =    1.000    mass and valenz                      
   RCORE  =    1.100    outmost cutoff radius                                   
   RWIGS  =    0.700; RWIGS  =    0.370    wigner-seitz radius (au A)           
   ENMAX  =  250.000; ENMIN  =  200.000 eV                                      
   RCLOC  =    0.701    cutoff for local pot                                    
   LCOR   =        T    correct aug charges                                     
   LPAW   =        T    paw PP                                                  
   EAUG   =  400.000                                                            
   RMAX   =    1.123    core radius for proj-oper                               
   RAUG   =    1.200    factor for augmentation sphere                          
   RDEP   =    1.112    radius for radial grids                                 
   RDEPT  =    0.926    core radius for aug-charge                              
                                                                                
   Atomic configuration                                                         
    2 entries                                                                   
     n  l   j            E        occ.                                          
     1  0  0.50        -6.4927   1.0000                                         
     2  1  0.50        -3.4015   0.0000                                         
   Description                                                                  
     l       E           TYP  RCUT    TYP  RCUT                                 
     0     -6.4927494     23  1.100                                             
     0      6.8029130     23  1.100                                             
     1     -4.0817478     23  1.100                                             
  local pseudopotential read in
  atomic valenz-charges read in
  non local Contribution for L=           0  read in
    real space projection operators read in
  non local Contribution for L=           0  read in
    real space projection operators read in
  non local Contribution for L=           1  read in
    real space projection operators read in
    PAW grid and wavefunctions read in
 
   number of l-projection  operators is LMAX  =           3
   number of lm-projection operators is LMMAX =           5
 
 POTCAR:    PAW_PBE Ir 06Sep2000                  
   VRHFIN =Ir: s1d8                                                             
   LEXCH  = PE                                                                  
   EATOM  =   560.1833 eV,   41.1723 Ry                                         
                                                                                
   TITEL  = PAW_PBE Ir 06Sep2000                                                
   LULTRA =        F    use ultrasoft PP ?                                      
   IUNSCR =        1    unscreen: 0-lin 1-nonlin 2-no                           
   RPACOR =    2.250    partial core radius                                     
   POMASS =  192.220; ZVAL   =    9.000    mass and valenz                      
   RCORE  =    2.600    outmost cutoff radius                                   
   RWIGS  =    2.690; RWIGS  =    1.423    wigner-seitz radius (au A)           
   ENMAX  =  210.864; ENMIN  =  158.148 eV                                      
   RCLOC  =    1.857    cutoff for local pot                                    
   LCOR   =        T    correct aug charges                                     
   LPAW   =        T    paw PP                                                  
   EAUG   =  318.962                                                            
   DEXC   =    0.000                                                            
   RMAX   =    2.667    core radius for proj-oper                               
   RAUG   =    1.300    factor for augmentation sphere                          
   RDEP   =    2.748    radius for radial grids                                 
   RDEPT  =    2.300    core radius for aug-charge                              
                                                                                
   Atomic configuration                                                         
   16 entries                                                                   
     n  l   j            E        occ.                                          
     1  0  0.50    -76100.0449   2.0000                                         
     2  0  0.50    -13308.1683   2.0000                                         
     2  1  1.50    -11558.0021   6.0000                                         
     3  0  0.50     -3110.7274   2.0000                                         
     3  1  1.50     -2599.2109   6.0000                                         
     3  2  2.50     -2037.1515  10.0000                                         
     4  0  0.50      -661.6001   2.0000                                         
     4  1  1.50      -493.8981   6.0000                                         
     4  2  2.50      -288.1909  10.0000                                         
     4  3  3.50       -59.5718  14.0000                                         
     5  0  0.50       -95.3879   2.0000                                         
     5  1  1.50       -52.2747   6.0000                                         
     5  2  2.50        -5.4180   8.0000                                         
     6  0  0.50        -5.5479   1.0000                                         
     6  1  1.50        -6.8029   0.0000                                         
     5  3  2.50        -1.3606   0.0000                                         
   Description                                                                  
     l       E           TYP  RCUT    TYP  RCUT                                 
     2     -5.4179967     23  2.600                                             
     2     -6.7785793     23  2.600                                             
     0     -5.5478636     23  2.600                                             
     0      2.2542272     23  2.600                                             
     1     -2.7211652     23  2.600                                             
     1     20.4087390     23  2.600                                             
  local pseudopotential read in
  partial core-charges read in
  partial kinetic energy density read in
  atomic valenz-charges read in
  non local Contribution for L=           2  read in
    real space projection operators read in
  non local Contribution for L=           2  read in
    real space projection operators read in
  non local Contribution for L=           0  read in
    real space projection operators read in
  non local Contribution for L=           0  read in
    real space projection operators read in
  non local Contribution for L=           1  read in
    real space projection operators read in
  non local Contribution for L=           1  read in
    real space projection operators read in
    PAW grid and wavefunctions read in
 
   number of l-projection  operators is LMAX  =           6
   number of lm-projection operators is LMMAX =          18
 
 POTCAR:    PAW_PBE Pt 04Feb2005                  
   VRHFIN =Pt: s1d9                                                             
   LEXCH  = PE                                                                  
   EATOM  =   729.1176 eV,   53.5886 Ry                                         
                                                                                
   TITEL  = PAW_PBE Pt 04Feb2005                                                
   LULTRA =        F    use ultrasoft PP ?                                      
   IUNSCR =        1    unscreen: 0-lin 1-nonlin 2-no                           
   RPACOR =    2.330    partial core radius                                     
   POMASS =  195.080; ZVAL   =   10.000    mass and valenz                      
   RCORE  =    2.600    outmost cutoff radius                                   
   RWIGS  =    2.750; RWIGS  =    1.455    wigner-seitz radius (au A)           
   ENMAX  =  230.283; ENMIN  =  172.712 eV                                      
   ICORE  =        3    local potential                                         
   LCOR   =        T    correct aug charges                                     
   LPAW   =        T    paw PP                                                  
   EAUG   =  358.966                                                            
   DEXC   =    0.000                                                            
   RMAX   =    2.658    core radius for proj-oper                               
   RAUG   =    1.300    factor for augmentation sphere                          
   RDEP   =    2.761    radius for radial grids                                 
   RDEPT  =    2.203    core radius for aug-charge                              
                                                                                
   Atomic configuration                                                         
   16 entries                                                                   
     n  l   j            E        occ.                                          
     1  0  0.50    -78401.1885   2.0000                                         
     2  0  0.50    -13770.7750   2.0000                                         
     2  1  1.50    -11931.0468   6.0000                                         
     3  0  0.50     -3234.7234   2.0000                                         
     3  1  1.50     -2699.2216   6.0000                                         
     3  2  2.50     -2119.5714  10.0000                                         
     4  0  0.50      -695.1528   2.0000                                         
     4  1  1.50      -519.6034   6.0000                                         
     4  2  2.50      -306.6786  10.0000                                         
     4  3  3.50       -70.1041  14.0000                                         
     5  0  0.50      -101.7747   2.0000                                         
     5  1  1.50       -55.9873   6.0000                                         
     5  2  2.50        -6.1423   9.0000                                         
     6  0  0.50        -5.6573   1.0000                                         
     6  1  1.50        -6.8029   0.0000                                         
     5  3  2.50        -1.3606   0.0000                                         
   Description                                                                  
     l       E           TYP  RCUT    TYP  RCUT                                 
     2     -6.1423404     23  2.500                                             
     2     -7.5029230     23  2.500                                             
     0     -5.6573207     23  2.500                                             
     0      0.7416693     23  2.500                                             
     1     -2.7211652     23  2.600                                             
     1     20.4087390     23  2.600                                             
     3     -1.3605826     23  2.500                                             
  local pseudopotential read in
  partial core-charges read in
  partial kinetic energy density read in
  atomic valenz-charges read in
  non local Contribution for L=           2  read in
    real space projection operators read in
  non local Contribution for L=           2  read in
    real space projection operators read in
  non local Contribution for L=           0  read in
    real space projection operators read in
  non local Contribution for L=           0  read in
    real space projection operators read in
  non local Contribution for L=           1  read in
    real space projection operators read in
  non local Contribution for L=           1  read in
    real space projection operators read in
    PAW grid and wavefunctions read in
 
   number of l-projection  operators is LMAX  =           6
   number of lm-projection operators is LMMAX =          18
 
 Optimization of the real space projectors (new method)

 maximal supplied QI-value         = 15.12
 optimisation between [QCUT,QGAM] = [  9.52, 19.05] = [ 25.40,101.61] Ry 
 Optimized for a Real-space Cutoff    1.57 Angstroem

   l    n(q)    QCUT    max X(q) W(low)/X(q) W(high)/X(q)  e(spline) 
   2      8     9.524    60.898    0.38E-03    0.43E-04    0.84E-07
   2      8     9.524    58.894    0.38E-03    0.47E-04    0.88E-07
   0      9     9.524   109.617    0.60E-04    0.64E-04    0.80E-07
   0      9     9.524    75.026    0.59E-04    0.62E-04    0.78E-07
   1      8     9.524    16.344    0.99E-04    0.18E-03    0.87E-07
   1      8     9.524    10.160    0.78E-04    0.15E-03    0.74E-07
 Optimization of the real space projectors (new method)

 maximal supplied QI-value         = 25.13
 optimisation between [QCUT,QGAM] = [  9.55, 19.10] = [ 25.54,102.17] Ry 
 Optimized for a Real-space Cutoff    1.39 Angstroem

   l    n(q)    QCUT    max X(q) W(low)/X(q) W(high)/X(q)  e(spline) 
   0      8     9.551   115.676    0.39E-03    0.54E-03    0.29E-06
   0      8     9.551    87.132    0.39E-03    0.54E-03    0.28E-06
   1      7     9.551     4.429    0.35E-03    0.51E-04    0.29E-06
   1      7     9.551     2.733    0.22E-03    0.42E-04    0.31E-06
 Optimization of the real space projectors (new method)

 maximal supplied QI-value         = 34.20
 optimisation between [QCUT,QGAM] = [  9.58, 19.15] = [ 25.68,102.74] Ry 
 Optimized for a Real-space Cutoff    1.31 Angstroem

   l    n(q)    QCUT    max X(q) W(low)/X(q) W(high)/X(q)  e(spline) 
   0      7     9.577    19.460    0.33E-03    0.12E-03    0.35E-06
   0      7     9.577    12.209    0.33E-03    0.11E-03    0.33E-06
   1      7     9.577     4.655    0.39E-03    0.14E-02    0.33E-06
 Optimization of the real space projectors (new method)

 maximal supplied QI-value         = 14.36
 optimisation between [QCUT,QGAM] = [  9.48, 19.10] = [ 25.16,102.17] Ry 
 Optimized for a Real-space Cutoff    1.57 Angstroem

   l    n(q)    QCUT    max X(q) W(low)/X(q) W(high)/X(q)  e(spline) 
   2      8     9.479   134.116    0.18E-03    0.75E-03    0.26E-06
   2      8     9.479   130.192    0.18E-03    0.75E-03    0.27E-06
   0      9     9.479    60.310    0.39E-03    0.24E-03    0.63E-07
   0      9     9.479    39.218    0.36E-03    0.22E-03    0.59E-07
   1      8     9.479    18.439    0.20E-03    0.15E-03    0.16E-06
   1      8     9.479    12.760    0.16E-03    0.11E-03    0.13E-06
 Optimization of the real space projectors (new method)

 maximal supplied QI-value         = 14.36
 optimisation between [QCUT,QGAM] = [  9.48, 19.10] = [ 25.16,102.17] Ry 
 Optimized for a Real-space Cutoff    1.57 Angstroem

   l    n(q)    QCUT    max X(q) W(low)/X(q) W(high)/X(q)  e(spline) 
   2      8     9.479    66.195    0.35E-03    0.53E-04    0.87E-07
   2      8     9.479    64.643    0.35E-03    0.57E-04    0.91E-07
   0      9     9.479    95.520    0.50E-04    0.62E-04    0.81E-07
   0      9     9.479    63.403    0.49E-04    0.60E-04    0.78E-07
   1      8     9.479    19.961    0.10E-03    0.87E-04    0.11E-06
   1      8     9.479    13.289    0.88E-04    0.71E-04    0.97E-07
  PAW_PBE Au 04Oct2007                  :
 energy of atom  1       EATOM= -926.0867
 kinetic energy error for atom=    0.0152 (will be added to EATOM!!)
  PAW_PBE C 08Apr2002                   :
 energy of atom  2       EATOM= -147.1560
 kinetic energy error for atom=    0.0854 (will be added to EATOM!!)
  PAW_PBE H 15Jun2001                   :
 energy of atom  3       EATOM=  -12.4884
 kinetic energy error for atom=    0.0203 (will be added to EATOM!!)
  PAW_PBE Ir 06Sep2000                  :
 energy of atom  4       EATOM= -560.1833
 kinetic energy error for atom=    0.0056 (will be added to EATOM!!)
  PAW_PBE Pt 04Feb2005                  :
 energy of atom  5       EATOM= -729.1176
 kinetic energy error for atom=    0.0144 (will be added to EATOM!!)
 
 
 POSCAR: Au  C  H Ir Pt                          
  positions in cartesian coordinates
  No initial velocities read in
 exchange correlation table for  LEXCH =        8
   RHO(1)=    0.500       N(1)  =     2000
   RHO(2)=  100.500       N(2)  =     4000
 


--------------------------------------------------------------------------------------------------------


 ion  position               nearest neighbor table
   1  0.335  0.833  0.546-  21 2.75  13 2.75  10 2.77  20 2.78  20 2.78   8 2.79  15 2.81  13 2.81
                            21 2.81  17 2.83  14 2.84  11 3.01
   2  0.997  0.976  0.696-   5 1.10   6 1.10   4 1.10  11 2.08
   3  0.046  0.367  0.667-   9 1.56
   4  0.877  0.189  0.709-   2 1.10
   5  0.899  0.855  0.706-   2 1.10
   6  0.213  0.876  0.708-   2 1.10
   7  0.498  0.006  0.394-  19 2.77  12 2.77  18 2.78  18 2.78  19 2.79  12 2.79  16 2.82  14 2.83
                            17 2.84
   8  0.510  0.490  0.619-  13 2.77   9 2.77  10 2.78  10 2.78   9 2.79   1 2.79  11 2.79  20 2.79
                            11 2.80
   9  0.009  0.490  0.621-   3 1.56  11 2.76  10 2.77   8 2.77   8 2.79  10 2.79  11 2.82  13 2.84
                            21 2.84  20 2.85
  10  0.511  0.989  0.619-  21 2.75   1 2.77  11 2.77   9 2.77   8 2.78   8 2.78   9 2.79  20 2.82
                            11 2.83
  11  0.008  0.986  0.629-   2 2.08   9 2.76  10 2.77   8 2.79   8 2.80   9 2.82  10 2.83  21 3.00
                             1 3.01  13 3.07
  12  0.001  0.004  0.394-  18 2.76   7 2.77  19 2.78  19 2.78   7 2.79  18 2.79  16 2.81  17 2.84
                            15 2.85
  13  0.840  0.328  0.545-   1 2.75  21 2.76   8 2.77  20 2.78  20 2.78  17 2.79  21 2.80   1 2.81
                            16 2.82   9 2.84  14 2.85  11 3.07
  14  0.668  0.670  0.469-  15 2.78  16 2.78  17 2.78  16 2.78  17 2.78  15 2.78  19 2.82   7 2.83
                            18 2.83   1 2.84  21 2.85  13 2.85
  15  0.167  0.670  0.471-  14 2.78  17 2.78  16 2.78  16 2.78  17 2.78  14 2.78  20 2.79  21 2.80
                             1 2.81  19 2.85  12 2.85  18 2.85
  16  0.668  0.170  0.469-  14 2.78  17 2.78  15 2.78  15 2.78  17 2.78  14 2.78  20 2.80  12 2.81
                             7 2.82  13 2.82  18 2.83  21 2.88
  17  0.168  0.169  0.470-  14 2.78  15 2.78  16 2.78  20 2.78  16 2.78  15 2.78  14 2.78  13 2.79
                             1 2.83   7 2.84  12 2.84  19 2.85
  18  0.497  0.506  0.394-  12 2.76  19 2.77   7 2.78   7 2.78  19 2.79  12 2.79  16 2.83  14 2.83
                            15 2.85
  19  0.001  0.504  0.394-  18 2.77   7 2.77  12 2.78  12 2.78   7 2.79  18 2.79  14 2.82  15 2.85
                            17 2.85
  20  0.339  0.330  0.544-  21 2.77  13 2.78   1 2.78  17 2.78   1 2.78  13 2.78  21 2.79   8 2.79
                            15 2.79  16 2.80  10 2.82   9 2.85
  21  0.841  0.830  0.546-   1 2.75  10 2.75  13 2.76  20 2.77  20 2.79  15 2.80  13 2.80   1 2.81
                             9 2.84  14 2.85  16 2.88  11 3.00
 
  LATTYP: Found a hexagonal cell.
 ALAT       =     5.5578593001
 C/A-ratio  =     5.5429542221
  
  Lattice vectors:
  
 A1 = (   2.7789296501,  -4.8132473446,   0.0000000000)
 A2 = (  -5.5578593001,   0.0000000000,   0.0000000000)
 A3 = (   0.0000000000,   0.0000000000, -30.8069596737)


Analysis of symmetry for initial positions (statically):
=====================================================================
 Subroutine PRICEL returns:
 Original cell was already a primitive cell.
 

 Routine SETGRP: Setting up the symmetry group for a 
 hexagonal supercell.


 Subroutine GETGRP returns: Found  1 space group operations
 (whereof  1 operations were pure point group operations)
 out of a pool of 24 trial point group operations.


The static configuration has the point symmetry C_1 .


Analysis of symmetry for dynamics (positions and initial velocities):
=====================================================================
 Subroutine PRICEL returns:
 Original cell was already a primitive cell.
 

 Routine SETGRP: Setting up the symmetry group for a 
 hexagonal supercell.


 Subroutine GETGRP returns: Found  1 space group operations
 (whereof  1 operations were pure point group operations)
 out of a pool of 24 trial point group operations.


The dynamic configuration has the point symmetry C_1 .


 Subroutine INISYM returns: Found  1 space group operations
 (whereof  1 operations are pure point group operations),
 and found     1 'primitive' translations

 
 
 KPOINTS: 0.4.Ir1.Au11                            

Automatic generation of k-mesh.
Space group operators:
 irot       det(A)        alpha          n_x          n_y          n_z        tau_x        tau_y        tau_z
    1     1.000000     0.000001     1.000000     0.000000     0.000000     0.000000     0.000000     0.000000
 
 Subroutine IBZKPT returns following result:
 ===========================================
 
 Found     96 irreducible k-points:
 
 Following reciprocal coordinates:
            Coordinates               Weight
  0.062500  0.062500  0.000000     16.000000
  0.000000  0.062500  0.000000     16.000000
 -0.062500  0.000000  0.000000     16.000000
  0.187500  0.062500  0.000000     16.000000
  0.125000  0.187500  0.000000     16.000000
 -0.062500  0.125000  0.000000     16.000000
  0.125000 -0.062500  0.000000     16.000000
 -0.062500 -0.187500  0.000000     16.000000
 -0.187500 -0.125000  0.000000     16.000000
  0.312500  0.062500  0.000000     16.000000
  0.250000  0.312500  0.000000     16.000000
 -0.062500  0.250000  0.000000     16.000000
  0.250000 -0.062500  0.000000     16.000000
 -0.062500 -0.312500  0.000000     16.000000
 -0.312500 -0.250000  0.000000     16.000000
  0.437500  0.062500  0.000000     16.000000
  0.375000  0.437500  0.000000     16.000000
 -0.062500  0.375000  0.000000     16.000000
  0.375000 -0.062500  0.000000     16.000000
 -0.062500 -0.437500  0.000000     16.000000
 -0.437500 -0.375000  0.000000     16.000000
 -0.437500  0.062500  0.000000     16.000000
  0.500000 -0.437500  0.000000     16.000000
 -0.062500  0.500000  0.000000     16.000000
  0.500000 -0.062500  0.000000     16.000000
 -0.062500  0.437500  0.000000     16.000000
  0.437500  0.500000  0.000000     16.000000
 -0.312500  0.062500  0.000000     16.000000
 -0.375000 -0.312500  0.000000     16.000000
 -0.062500 -0.375000  0.000000     16.000000
 -0.375000 -0.062500  0.000000     16.000000
 -0.062500  0.312500  0.000000     16.000000
  0.312500  0.375000  0.000000     16.000000
 -0.187500  0.062500  0.000000     16.000000
 -0.250000 -0.187500  0.000000     16.000000
 -0.062500 -0.250000  0.000000     16.000000
 -0.250000 -0.062500  0.000000     16.000000
 -0.062500  0.187500  0.000000     16.000000
  0.187500  0.250000  0.000000     16.000000
 -0.062500  0.062500  0.000000     16.000000
 -0.125000 -0.062500  0.000000     16.000000
 -0.062500 -0.125000  0.000000     16.000000
  0.187500  0.187500  0.000000     16.000000
  0.000000  0.187500  0.000000     16.000000
 -0.187500  0.000000  0.000000     16.000000
  0.312500  0.187500  0.000000     16.000000
  0.125000  0.312500  0.000000     16.000000
 -0.187500  0.125000  0.000000     16.000000
  0.125000 -0.187500  0.000000     16.000000
 -0.187500 -0.312500  0.000000     16.000000
 -0.312500 -0.125000  0.000000     16.000000
  0.437500  0.187500  0.000000     16.000000
  0.250000  0.437500  0.000000     16.000000
 -0.187500  0.250000  0.000000     16.000000
  0.250000 -0.187500  0.000000     16.000000
 -0.187500 -0.437500  0.000000     16.000000
 -0.437500 -0.250000  0.000000     16.000000
 -0.437500  0.187500  0.000000     16.000000
  0.375000 -0.437500  0.000000     16.000000
 -0.187500  0.375000  0.000000     16.000000
  0.375000 -0.187500  0.000000     16.000000
 -0.187500  0.437500  0.000000     16.000000
  0.437500 -0.375000  0.000000     16.000000
 -0.312500  0.187500  0.000000     16.000000
  0.500000 -0.312500  0.000000     16.000000
 -0.187500  0.500000  0.000000     16.000000
  0.500000 -0.187500  0.000000     16.000000
 -0.187500  0.312500  0.000000     16.000000
  0.312500  0.500000  0.000000     16.000000
 -0.187500  0.187500  0.000000     16.000000
 -0.375000 -0.187500  0.000000     16.000000
 -0.187500 -0.375000  0.000000     16.000000
  0.312500  0.312500  0.000000     16.000000
  0.000000  0.312500  0.000000     16.000000
 -0.312500  0.000000  0.000000     16.000000
  0.437500  0.312500  0.000000     16.000000
  0.125000  0.437500  0.000000     16.000000
 -0.312500  0.125000  0.000000     16.000000
  0.125000 -0.312500  0.000000     16.000000
 -0.312500 -0.437500  0.000000     16.000000
 -0.437500 -0.125000  0.000000     16.000000
 -0.437500  0.312500  0.000000     16.000000
  0.250000 -0.437500  0.000000     16.000000
 -0.312500  0.250000  0.000000     16.000000
  0.250000 -0.312500  0.000000     16.000000
 -0.312500  0.437500  0.000000     16.000000
  0.437500 -0.250000  0.000000     16.000000
 -0.312500  0.312500  0.000000     16.000000
  0.375000 -0.312500  0.000000     16.000000
 -0.312500  0.375000  0.000000     16.000000
  0.437500  0.437500  0.000000     16.000000
  0.000000  0.437500  0.000000     16.000000
 -0.437500 -0.000000  0.000000     16.000000
 -0.437500  0.437500  0.000000     16.000000
  0.125000 -0.437500  0.000000     16.000000
 -0.437500  0.125000  0.000000     16.000000
 
 Following cartesian coordinates:
            Coordinates               Weight
  0.011245  0.006492  0.000000     16.000000
  0.000000  0.012985  0.000000     16.000000
 -0.011245  0.006492  0.000000     16.000000
  0.033736 -0.006492  0.000000     16.000000
  0.022491  0.025970  0.000000     16.000000
 -0.011245  0.032462  0.000000     16.000000
  0.022491 -0.025970  0.000000     16.000000
 -0.011245 -0.032462  0.000000     16.000000
 -0.033736 -0.006492  0.000000     16.000000
  0.056227 -0.019477  0.000000     16.000000
  0.044981  0.038955  0.000000     16.000000
 -0.011245  0.058432  0.000000     16.000000
  0.044981 -0.038955  0.000000     16.000000
 -0.011245 -0.058432  0.000000     16.000000
 -0.056227 -0.019477  0.000000     16.000000
  0.078717 -0.032462  0.000000     16.000000
  0.067472  0.051940  0.000000     16.000000
 -0.011245  0.084402  0.000000     16.000000
  0.067472 -0.051940  0.000000     16.000000
 -0.011245 -0.084402  0.000000     16.000000
 -0.078717 -0.032462  0.000000     16.000000
 -0.078717  0.058432  0.000000     16.000000
  0.089963 -0.142835  0.000000     16.000000
 -0.011245  0.110372  0.000000     16.000000
  0.089963 -0.064925  0.000000     16.000000
 -0.011245  0.097387  0.000000     16.000000
  0.078717  0.058432  0.000000     16.000000
 -0.056227  0.045447  0.000000     16.000000
 -0.067472 -0.025970  0.000000     16.000000
 -0.011245 -0.071417  0.000000     16.000000
 -0.067472  0.025970  0.000000     16.000000
 -0.011245  0.071417  0.000000     16.000000
  0.056227  0.045447  0.000000     16.000000
 -0.033736  0.032462  0.000000     16.000000
 -0.044981 -0.012985  0.000000     16.000000
 -0.011245 -0.045447  0.000000     16.000000
 -0.044981  0.012985  0.000000     16.000000
 -0.011245  0.045447  0.000000     16.000000
  0.033736  0.032462  0.000000     16.000000
 -0.011245  0.019477  0.000000     16.000000
 -0.022491  0.000000  0.000000     16.000000
 -0.011245 -0.019477  0.000000     16.000000
  0.033736  0.019477  0.000000     16.000000
  0.000000  0.038955  0.000000     16.000000
 -0.033736  0.019477  0.000000     16.000000
  0.056227  0.006492  0.000000     16.000000
  0.022491  0.051940  0.000000     16.000000
 -0.033736  0.045447  0.000000     16.000000
  0.022491 -0.051940  0.000000     16.000000
 -0.033736 -0.045447  0.000000     16.000000
 -0.056227  0.006492  0.000000     16.000000
  0.078717 -0.006492  0.000000     16.000000
  0.044981  0.064925  0.000000     16.000000
 -0.033736  0.071417  0.000000     16.000000
  0.044981 -0.064925  0.000000     16.000000
 -0.033736 -0.071417  0.000000     16.000000
 -0.078717 -0.006492  0.000000     16.000000
 -0.078717  0.084402  0.000000     16.000000
  0.067472 -0.129850  0.000000     16.000000
 -0.033736  0.097387  0.000000     16.000000
  0.067472 -0.077910  0.000000     16.000000
 -0.033736  0.110372  0.000000     16.000000
  0.078717 -0.123357  0.000000     16.000000
 -0.056227  0.071417  0.000000     16.000000
  0.089963 -0.116865  0.000000     16.000000
 -0.033736  0.123357  0.000000     16.000000
  0.089963 -0.090895  0.000000     16.000000
 -0.033736  0.084402  0.000000     16.000000
  0.056227  0.071417  0.000000     16.000000
 -0.033736  0.058432  0.000000     16.000000
 -0.067472  0.000000  0.000000     16.000000
 -0.033736 -0.058432  0.000000     16.000000
  0.056227  0.032462  0.000000     16.000000
  0.000000  0.064925  0.000000     16.000000
 -0.056227  0.032462  0.000000     16.000000
  0.078717  0.019477  0.000000     16.000000
  0.022491  0.077910  0.000000     16.000000
 -0.056227  0.058432  0.000000     16.000000
  0.022491 -0.077910  0.000000     16.000000
 -0.056227 -0.058432  0.000000     16.000000
 -0.078717  0.019477  0.000000     16.000000
 -0.078717  0.110372  0.000000     16.000000
  0.044981 -0.116865  0.000000     16.000000
 -0.056227  0.084402  0.000000     16.000000
  0.044981 -0.090895  0.000000     16.000000
 -0.056227  0.123357  0.000000     16.000000
  0.078717 -0.097387  0.000000     16.000000
 -0.056227  0.097387  0.000000     16.000000
  0.067472 -0.103880  0.000000     16.000000
 -0.056227  0.110372  0.000000     16.000000
  0.078717  0.045447  0.000000     16.000000
  0.000000  0.090895  0.000000     16.000000
 -0.078717  0.045447  0.000000     16.000000
 -0.078717  0.136342  0.000000     16.000000
  0.022491 -0.103880  0.000000     16.000000
 -0.078717  0.071417  0.000000     16.000000
 


--------------------------------------------------------------------------------------------------------




 Dimension of arrays:
   k-points           NKPTS =     96   k-points in BZ     NKDIM =     96   number of bands    NBANDS=    100
   number of dos      NEDOS =    301   number of ions     NIONS =     21
   non local maximal  LDIM  =      6   non local SUM 2l+1 LMDIM =     18
   total plane-waves  NPLWV = 112896
   max r-space proj   IRMAX =   2252   max aug-charges    IRDMAX=  10104
   dimension x,y,z NGX =    28 NGY =   28 NGZ =  144
   dimension x,y,z NGXF=    56 NGYF=   56 NGZF=  288
   support grid    NGXF=    56 NGYF=   56 NGZF=  288
   ions per type =               1   1   4   1  14
   NGX,Y,Z   is equivalent  to a cutoff of   8.38,  8.38,  7.77 a.u.
   NGXF,Y,Z  is equivalent  to a cutoff of  16.75, 16.75, 15.54 a.u.

 SYSTEM =  0.4.Ir1.Au11                            
 POSCAR =  Au  C  H Ir Pt                          

 Startparameter for this run:
   NWRITE =      2    write-flag & timer
   PREC   = normal    normal or accurate (medium, high low for compatibility)
   ISTART =      0    job   : 0-new  1-cont  2-samecut
   ICHARG =      2    charge: 1-file 2-atom 10-const
   ISPIN  =      1    spin polarized calculation?
   LNONCOLLINEAR =      F non collinear calculations
   LSORBIT =      F    spin-orbit coupling
   INIWAV =      1    electr: 0-lowe 1-rand  2-diag
   LASPH  =      F    aspherical Exc in radial PAW
   METAGGA=      F    non-selfconsistent MetaGGA calc.

 Electronic Relaxation 1
   ENCUT  =  350.0 eV  25.72 Ry    5.07 a.u.   8.48  8.48 46.99*2*pi/ulx,y,z
   ENINI  =  350.0     initial cutoff
   ENAUG  =  644.9 eV  augmentation charge cutoff
   NELM   =   1000;   NELMIN=  5; NELMDL= -5     # of ELM steps 
   EDIFF  = 0.1E-04   stopping-criterion for ELM
   LREAL  =      T    real-space projection
   NLSPLINE    = F    spline interpolate recip. space projectors
   LCOMPAT=      F    compatible to vasp.4.4
   GGA_COMPAT  = T    GGA compatible to vasp.4.4-vasp.4.6
   LMAXPAW     = -100 max onsite density
   LMAXMIX     =    2 max onsite mixed and CHGCAR
   VOSKOWN=      0    Vosko Wilk Nusair interpolation
   ROPT   =   -0.00050  -0.00050  -0.00050  -0.00050
   ROPT   =   -0.00050
 Ionic relaxation
   EDIFFG = 0.1E-03   stopping-criterion for IOM
   NSW    =      0    number of steps for IOM
   NBLOCK =      1;   KBLOCK =      1    inner block; outer block 
   IBRION =     -1    ionic relax: 0-MD 1-quasi-New 2-CG
   NFREE  =      0    steps in history (QN), initial steepest desc. (CG)
   ISIF   =      2    stress and relaxation
   IWAVPR =     10    prediction:  0-non 1-charg 2-wave 3-comb
   ISYM   =      2    0-nonsym 1-usesym 2-fastsym
   LCORR  =      T    Harris-Foulkes like correction to forces

   POTIM  = 0.5000    time-step for ionic-motion
   TEIN   =    0.0    initial temperature
   TEBEG  =    0.0;   TEEND  =   0.0 temperature during run
   SMASS  =  -3.00    Nose mass-parameter (am)
   estimated Nose-frequenzy (Omega)   =  0.10E-29 period in steps =****** mass=  -0.706E-27a.u.
   SCALEE = 1.0000    scale energy and forces
   NPACO  =    256;   APACO  = 16.0  distance and # of slots for P.C.
   PSTRESS=    0.0 pullay stress

  Mass of Ions in am
   POMASS = 196.97 12.01  1.00192.22195.08
  Ionic Valenz
   ZVAL   =  11.00  4.00  1.00  9.00 10.00
  Atomic Wigner-Seitz radii
   RWIGS  =  -1.00 -1.00 -1.00 -1.00 -1.00
  virtual crystal weights 
   VCA    =   1.00  1.00  1.00  1.00  1.00
   NELECT =     168.0000    total number of electrons
   NUPDOWN=      -1.0000    fix difference up-down

 DOS related values:
   EMIN   =  10.00;   EMAX   =-10.00  energy-range for DOS
   EFERMI =   0.00
   ISMEAR =     1;   SIGMA  =   0.20  broadening in eV -4-tet -1-fermi 0-gaus

 Electronic relaxation 2 (details)
   IALGO  =     38    algorithm
   LDIAG  =      T    sub-space diagonalisation (order eigenvalues)
   LSUBROT=      F    optimize rotation matrix (better conditioning)
   TURBO    =      0    0=normal 1=particle mesh
   IRESTART =      0    0=no restart 2=restart with 2 vectors
   NREBOOT  =      0    no. of reboots
   NMIN     =      0    reboot dimension
   EREF     =   0.00    reference energy to select bands
   IMIX   =      4    mixing-type and parameters
     AMIX     =   0.40;   BMIX     =  1.00
     AMIX_MAG =   1.60;   BMIX_MAG =  1.00
     AMIN     =   0.10
     WC   =   100.;   INIMIX=   1;  MIXPRE=   1;  MAXMIX= -45

 Intra band minimization:
   WEIMIN = 0.0000     energy-eigenvalue tresh-hold
   EBREAK =  0.25E-07  absolut break condition
   DEPER  =   0.30     relativ break condition  

   TIME   =   0.40     timestep for ELM

  volume/ion in A,a.u.               =      39.24       264.83
  Fermi-wavevector in a.u.,A,eV,Ry     =   0.963488  1.820729 12.630418  0.928310
  Thomas-Fermi vector in A             =   2.093038
 
 Write flags
   LWAVE        =      F    write WAVECAR
   LDOWNSAMPLE  =      F    k-point downsampling of WAVECAR
   LCHARG       =      F    write CHGCAR
   LVTOT        =      F    write LOCPOT, total local potential
   LVHAR        =      F    write LOCPOT, Hartree potential only
   LELF         =      F    write electronic localiz. function (ELF)
   LORBIT       =      0    0 simple, 1 ext, 2 COOP (PROOUT), +10 PAW based schemes


 Dipole corrections
   LMONO  =      F    monopole corrections only (constant potential shift)
   LDIPOL =      F    correct potential (dipole corrections)
   IDIPOL =      3    1-x, 2-y, 3-z, 4-all directions 
   EPSILON=  1.0000000 bulk dielectric constant

 Exchange correlation treatment:
   GGA     =    --    GGA type
   LEXCH   =     8    internal setting for exchange type
   VOSKOWN=      0    Vosko Wilk Nusair interpolation
   LHFCALC =     F    Hartree Fock is set to
   LHFONE  =     F    Hartree Fock one center treatment
   AEXX    =    0.0000 exact exchange contribution

 Linear response parameters
   LEPSILON=     F    determine dielectric tensor
   LRPA    =     F    only Hartree local field effects (RPA)
   LNABLA  =     F    use nabla operator in PAW spheres
   LVEL    =     F    velocity operator in full k-point grid
   LINTERFAST=   F  fast interpolation
   KINTER  =     0    interpolate to denser k-point grid
   CSHIFT  =0.1000    complex shift for real part using Kramers Kronig
   OMEGAMAX=  -1.0    maximum frequency
   DEG_THRESHOLD= 0.2000000E-02 threshold for treating states as degnerate
   RTIME   =   -0.100 relaxation time in fs
  (WPLASMAI=    0.000 imaginary part of plasma frequency in eV, 0.658/RTIME)
   DFIELD  = 0.0000000 0.0000000 0.0000000 field for delta impulse in time
 
 Orbital magnetization related:
   ORBITALMAG=     F  switch on orbital magnetization
   LCHIMAG   =     F  perturbation theory with respect to B field
   DQ        =  0.001000  dq finite difference perturbation B field
   LLRAUG    =     F  two centre corrections for induced B field



--------------------------------------------------------------------------------------------------------


 Static calculation
 charge density and potential will be updated during run
 non-spin polarized calculation
 Variant of blocked Davidson
 Davidson routine will perform the subspace rotation
 perform sub-space diagonalisation
    after iterative eigenvector-optimisation
 modified Broyden-mixing scheme, WC =      100.0
 initial mixing is a Kerker type mixing with AMIX =  0.4000 and BMIX =      1.0000
 Hartree-type preconditioning will be used
 using additional bands           16
 real space projection scheme for non local part
 use partial core corrections
 calculate Harris-corrections to forces 
   (improved forces if not selfconsistent)
 use gradient corrections 
 use of overlap-Matrix (Vanderbilt PP)
 Methfessel and Paxton  Order N= 1 SIGMA  =   0.20


--------------------------------------------------------------------------------------------------------


  energy-cutoff  :      350.00
  volume of cell :      824.13
      direct lattice vectors                 reciprocal lattice vectors
     5.557859300  0.000000000  0.000000000     0.179925390 -0.103879972  0.000000000
     2.778929650  4.813247345  0.000000000     0.000000000  0.207759944  0.000000000
     0.000000000  0.000000000 30.806959674     0.000000000  0.000000000  0.032460198

  length of vectors
     5.557859300  5.557859300 30.806959674     0.207759944  0.207759944  0.032460198


 
 k-points in units of 2pi/SCALE and weight: 0.4.Ir1.Au11                            
   0.01124534  0.00649250  0.00000000       0.010
   0.00000000  0.01298500  0.00000000       0.010
  -0.01124534  0.00649250  0.00000000       0.010
   0.03373601 -0.00649250  0.00000000       0.010
   0.02249067  0.02596999  0.00000000       0.010
  -0.01124534  0.03246249  0.00000000       0.010
   0.02249067 -0.02596999  0.00000000       0.010
  -0.01124534 -0.03246249  0.00000000       0.010
  -0.03373601 -0.00649250  0.00000000       0.010
   0.05622668 -0.01947749  0.00000000       0.010
   0.04498135  0.03895499  0.00000000       0.010
  -0.01124534  0.05843248  0.00000000       0.010
   0.04498135 -0.03895499  0.00000000       0.010
  -0.01124534 -0.05843248  0.00000000       0.010
  -0.05622668 -0.01947749  0.00000000       0.010
   0.07871736 -0.03246249  0.00000000       0.010
   0.06747202  0.05193999  0.00000000       0.010
  -0.01124534  0.08440248  0.00000000       0.010
   0.06747202 -0.05193999  0.00000000       0.010
  -0.01124534 -0.08440248  0.00000000       0.010
  -0.07871736 -0.03246249  0.00000000       0.010
  -0.07871736  0.05843248  0.00000000       0.010
   0.08996269 -0.14283496  0.00000000       0.010
  -0.01124534  0.11037247  0.00000000       0.010
   0.08996269 -0.06492498  0.00000000       0.010
  -0.01124534  0.09738747  0.00000000       0.010
   0.07871736  0.05843248  0.00000000       0.010
  -0.05622668  0.04544749  0.00000000       0.010
  -0.06747202 -0.02596999  0.00000000       0.010
  -0.01124534 -0.07141748  0.00000000       0.010
  -0.06747202  0.02596999  0.00000000       0.010
  -0.01124534  0.07141748  0.00000000       0.010
   0.05622668  0.04544749  0.00000000       0.010
  -0.03373601  0.03246249  0.00000000       0.010
  -0.04498135 -0.01298500  0.00000000       0.010
  -0.01124534 -0.04544749  0.00000000       0.010
  -0.04498135  0.01298500  0.00000000       0.010
  -0.01124534  0.04544749  0.00000000       0.010
   0.03373601  0.03246249  0.00000000       0.010
  -0.01124534  0.01947749  0.00000000       0.010
  -0.02249067  0.00000000  0.00000000       0.010
  -0.01124534 -0.01947749  0.00000000       0.010
   0.03373601  0.01947749  0.00000000       0.010
   0.00000000  0.03895499  0.00000000       0.010
  -0.03373601  0.01947749  0.00000000       0.010
   0.05622668  0.00649250  0.00000000       0.010
   0.02249067  0.05193999  0.00000000       0.010
  -0.03373601  0.04544749  0.00000000       0.010
   0.02249067 -0.05193999  0.00000000       0.010
  -0.03373601 -0.04544749  0.00000000       0.010
  -0.05622668  0.00649250  0.00000000       0.010
   0.07871736 -0.00649250  0.00000000       0.010
   0.04498135  0.06492498  0.00000000       0.010
  -0.03373601  0.07141748  0.00000000       0.010
   0.04498135 -0.06492498  0.00000000       0.010
  -0.03373601 -0.07141748  0.00000000       0.010
  -0.07871736 -0.00649250  0.00000000       0.010
  -0.07871736  0.08440248  0.00000000       0.010
   0.06747202 -0.12984997  0.00000000       0.010
  -0.03373601  0.09738747  0.00000000       0.010
   0.06747202 -0.07790998  0.00000000       0.010
  -0.03373601  0.11037247  0.00000000       0.010
   0.07871736 -0.12335747  0.00000000       0.010
  -0.05622668  0.07141748  0.00000000       0.010
   0.08996269 -0.11686497  0.00000000       0.010
  -0.03373601  0.12335747  0.00000000       0.010
   0.08996269 -0.09089498  0.00000000       0.010
  -0.03373601  0.08440248  0.00000000       0.010
   0.05622668  0.07141748  0.00000000       0.010
  -0.03373601  0.05843248  0.00000000       0.010
  -0.06747202  0.00000000  0.00000000       0.010
  -0.03373601 -0.05843248  0.00000000       0.010
   0.05622668  0.03246249  0.00000000       0.010
   0.00000000  0.06492498  0.00000000       0.010
  -0.05622668  0.03246249  0.00000000       0.010
   0.07871736  0.01947749  0.00000000       0.010
   0.02249067  0.07790998  0.00000000       0.010
  -0.05622668  0.05843248  0.00000000       0.010
   0.02249067 -0.07790998  0.00000000       0.010
  -0.05622668 -0.05843248  0.00000000       0.010
  -0.07871736  0.01947749  0.00000000       0.010
  -0.07871736  0.11037247  0.00000000       0.010
   0.04498135 -0.11686497  0.00000000       0.010
  -0.05622668  0.08440248  0.00000000       0.010
   0.04498135 -0.09089498  0.00000000       0.010
  -0.05622668  0.12335747  0.00000000       0.010
   0.07871736 -0.09738747  0.00000000       0.010
  -0.05622668  0.09738747  0.00000000       0.010
   0.06747202 -0.10387997  0.00000000       0.010
  -0.05622668  0.11037247  0.00000000       0.010
   0.07871736  0.04544749  0.00000000       0.010
   0.00000000  0.09089498  0.00000000       0.010
  -0.07871736  0.04544749  0.00000000       0.010
  -0.07871736  0.13634246  0.00000000       0.010
   0.02249067 -0.10387997  0.00000000       0.010
  -0.07871736  0.07141748  0.00000000       0.010
 
 k-points in reciprocal lattice and weights: 0.4.Ir1.Au11                            
   0.06250000  0.06250000  0.00000000       0.010
   0.00000000  0.06250000  0.00000000       0.010
  -0.06250000  0.00000000  0.00000000       0.010
   0.18750000  0.06250000  0.00000000       0.010
   0.12500000  0.18750000  0.00000000       0.010
  -0.06250000  0.12500000  0.00000000       0.010
   0.12500000 -0.06250000  0.00000000       0.010
  -0.06250000 -0.18750000  0.00000000       0.010
  -0.18750000 -0.12500000  0.00000000       0.010
   0.31250000  0.06250000  0.00000000       0.010
   0.25000000  0.31250000  0.00000000       0.010
  -0.06250000  0.25000000  0.00000000       0.010
   0.25000000 -0.06250000  0.00000000       0.010
  -0.06250000 -0.31250000  0.00000000       0.010
  -0.31250000 -0.25000000  0.00000000       0.010
   0.43750000  0.06250000  0.00000000       0.010
   0.37500000  0.43750000  0.00000000       0.010
  -0.06250000  0.37500000  0.00000000       0.010
   0.37500000 -0.06250000  0.00000000       0.010
  -0.06250000 -0.43750000  0.00000000       0.010
  -0.43750000 -0.37500000  0.00000000       0.010
  -0.43750000  0.06250000  0.00000000       0.010
   0.50000000 -0.43750000  0.00000000       0.010
  -0.06250000  0.50000000  0.00000000       0.010
   0.50000000 -0.06250000  0.00000000       0.010
  -0.06250000  0.43750000  0.00000000       0.010
   0.43750000  0.50000000  0.00000000       0.010
  -0.31250000  0.06250000  0.00000000       0.010
  -0.37500000 -0.31250000  0.00000000       0.010
  -0.06250000 -0.37500000  0.00000000       0.010
  -0.37500000 -0.06250000  0.00000000       0.010
  -0.06250000  0.31250000  0.00000000       0.010
   0.31250000  0.37500000  0.00000000       0.010
  -0.18750000  0.06250000  0.00000000       0.010
  -0.25000000 -0.18750000  0.00000000       0.010
  -0.06250000 -0.25000000  0.00000000       0.010
  -0.25000000 -0.06250000  0.00000000       0.010
  -0.06250000  0.18750000  0.00000000       0.010
   0.18750000  0.25000000  0.00000000       0.010
  -0.06250000  0.06250000  0.00000000       0.010
  -0.12500000 -0.06250000  0.00000000       0.010
  -0.06250000 -0.12500000  0.00000000       0.010
   0.18750000  0.18750000  0.00000000       0.010
   0.00000000  0.18750000  0.00000000       0.010
  -0.18750000  0.00000000  0.00000000       0.010
   0.31250000  0.18750000  0.00000000       0.010
   0.12500000  0.31250000  0.00000000       0.010
  -0.18750000  0.12500000  0.00000000       0.010
   0.12500000 -0.18750000  0.00000000       0.010
  -0.18750000 -0.31250000  0.00000000       0.010
  -0.31250000 -0.12500000  0.00000000       0.010
   0.43750000  0.18750000  0.00000000       0.010
   0.25000000  0.43750000  0.00000000       0.010
  -0.18750000  0.25000000  0.00000000       0.010
   0.25000000 -0.18750000  0.00000000       0.010
  -0.18750000 -0.43750000  0.00000000       0.010
  -0.43750000 -0.25000000  0.00000000       0.010
  -0.43750000  0.18750000  0.00000000       0.010
   0.37500000 -0.43750000  0.00000000       0.010
  -0.18750000  0.37500000  0.00000000       0.010
   0.37500000 -0.18750000  0.00000000       0.010
  -0.18750000  0.43750000  0.00000000       0.010
   0.43750000 -0.37500000  0.00000000       0.010
  -0.31250000  0.18750000  0.00000000       0.010
   0.50000000 -0.31250000  0.00000000       0.010
  -0.18750000  0.50000000  0.00000000       0.010
   0.50000000 -0.18750000  0.00000000       0.010
  -0.18750000  0.31250000  0.00000000       0.010
   0.31250000  0.50000000  0.00000000       0.010
  -0.18750000  0.18750000  0.00000000       0.010
  -0.37500000 -0.18750000  0.00000000       0.010
  -0.18750000 -0.37500000  0.00000000       0.010
   0.31250000  0.31250000  0.00000000       0.010
   0.00000000  0.31250000  0.00000000       0.010
  -0.31250000  0.00000000  0.00000000       0.010
   0.43750000  0.31250000  0.00000000       0.010
   0.12500000  0.43750000  0.00000000       0.010
  -0.31250000  0.12500000  0.00000000       0.010
   0.12500000 -0.31250000  0.00000000       0.010
  -0.31250000 -0.43750000  0.00000000       0.010
  -0.43750000 -0.12500000  0.00000000       0.010
  -0.43750000  0.31250000  0.00000000       0.010
   0.25000000 -0.43750000  0.00000000       0.010
  -0.31250000  0.25000000  0.00000000       0.010
   0.25000000 -0.31250000  0.00000000       0.010
  -0.31250000  0.43750000  0.00000000       0.010
   0.43750000 -0.25000000  0.00000000       0.010
  -0.31250000  0.31250000  0.00000000       0.010
   0.37500000 -0.31250000  0.00000000       0.010
  -0.31250000  0.37500000  0.00000000       0.010
   0.43750000  0.43750000  0.00000000       0.010
   0.00000000  0.43750000  0.00000000       0.010
  -0.43750000 -0.00000000  0.00000000       0.010
  -0.43750000  0.43750000  0.00000000       0.010
   0.12500000 -0.43750000  0.00000000       0.010
  -0.43750000  0.12500000  0.00000000       0.010
 
 position of ions in fractional coordinates (direct lattice) 
   0.33477317  0.83256283  0.54553192
   0.99735554  0.97552004  0.69636905
   0.04645190  0.36709801  0.66742722
   0.87661570  0.18876977  0.70901786
   0.89899240  0.85471904  0.70609578
   0.21285897  0.87604033  0.70822567
   0.49819347  0.00559592  0.39396566
   0.51006533  0.49032437  0.61850259
   0.00931511  0.48984939  0.62083592
   0.51147655  0.98910137  0.61863738
   0.00784648  0.98584322  0.62889807
   0.00067006  0.00425022  0.39415604
   0.83996289  0.32756575  0.54477008
   0.66797868  0.66982232  0.46929652
   0.16717432  0.66995668  0.47050539
   0.66793732  0.17047771  0.46896247
   0.16827435  0.16885874  0.47025601
   0.49730032  0.50629180  0.39363379
   0.00061069  0.50440422  0.39403013
   0.33926648  0.33008759  0.54403254
   0.84135048  0.82984841  0.54562427
 
 position of ions in cartesian coordinates  (Angst):
   4.17425569  4.00733083 16.80617999
   8.25406331  4.69541922 21.45301313
   1.27831271  1.76693354 20.56140346
   5.39668464  0.90859558 21.84268456
   7.37167735  4.11397415 21.75266415
   3.61749467  4.21659880 21.81827963
   2.78443987  0.02693453 12.13688431
   4.19744824  2.36005245 19.05418428
   1.41302908  2.35776628 19.12606708
   5.59135783  4.76078956 19.05833696
   2.78319859  4.74510728 19.37443755
   0.01553516  0.02045734 12.14274909
   5.57867775  1.57665498 16.78270981
   5.57392065  3.22402052 14.45759890
   2.79089384  3.22466721 14.49484065
   4.18604723  0.82055139 14.44730779
   1.40449171  0.81275890 14.48715797
   4.17087453  2.43690767 12.12666017
   1.40509798  2.42782227 12.13887023
   2.80288557  1.58879322 16.75998865
   6.98219794  3.99426564 16.80902481
 


--------------------------------------------------------------------------------------------------------


 k-point  1 :   0.0625 0.0625 0.0000  plane waves:   12325
 k-point  2 :   0.0000 0.0625 0.0000  plane waves:   12325
 k-point  3 :  -0.0625 0.0000 0.0000  plane waves:   12325
 k-point  4 :   0.1875 0.0625 0.0000  plane waves:   12294
 k-point  5 :   0.1250 0.1875 0.0000  plane waves:   12294
 k-point  6 :  -0.0625 0.1250 0.0000  plane waves:   12294
 k-point  7 :   0.1250-0.0625 0.0000  plane waves:   12294
 k-point  8 :  -0.0625-0.1875 0.0000  plane waves:   12294
 k-point  9 :  -0.1875-0.1250 0.0000  plane waves:   12294
 k-point 10 :   0.3125 0.0625 0.0000  plane waves:   12263
 k-point 11 :   0.2500 0.3125 0.0000  plane waves:   12263
 k-point 12 :  -0.0625 0.2500 0.0000  plane waves:   12263
 k-point 13 :   0.2500-0.0625 0.0000  plane waves:   12263
 k-point 14 :  -0.0625-0.3125 0.0000  plane waves:   12263
 k-point 15 :  -0.3125-0.2500 0.0000  plane waves:   12263
 k-point 16 :   0.4375 0.0625 0.0000  plane waves:   12221
 k-point 17 :   0.3750 0.4375 0.0000  plane waves:   12221
 k-point 18 :  -0.0625 0.3750 0.0000  plane waves:   12221
 k-point 19 :   0.3750-0.0625 0.0000  plane waves:   12221
 k-point 20 :  -0.0625-0.4375 0.0000  plane waves:   12221
 k-point 21 :  -0.4375-0.3750 0.0000  plane waves:   12221
 k-point 22 :  -0.4375 0.0625 0.0000  plane waves:   12211
 k-point 23 :   0.5000-0.4375 0.0000  plane waves:   12211
 k-point 24 :  -0.0625 0.5000 0.0000  plane waves:   12211
 k-point 25 :   0.5000-0.0625 0.0000  plane waves:   12211
 k-point 26 :  -0.0625 0.4375 0.0000  plane waves:   12211
 k-point 27 :   0.4375 0.5000 0.0000  plane waves:   12211
 k-point 28 :  -0.3125 0.0625 0.0000  plane waves:   12242
 k-point 29 :  -0.3750-0.3125 0.0000  plane waves:   12242
 k-point 30 :  -0.0625-0.3750 0.0000  plane waves:   12242
 k-point 31 :  -0.3750-0.0625 0.0000  plane waves:   12242
 k-point 32 :  -0.0625 0.3125 0.0000  plane waves:   12242
 k-point 33 :   0.3125 0.3750 0.0000  plane waves:   12242
 k-point 34 :  -0.1875 0.0625 0.0000  plane waves:   12280
 k-point 35 :  -0.2500-0.1875 0.0000  plane waves:   12280
 k-point 36 :  -0.0625-0.2500 0.0000  plane waves:   12280
 k-point 37 :  -0.2500-0.0625 0.0000  plane waves:   12280
 k-point 38 :  -0.0625 0.1875 0.0000  plane waves:   12280
 k-point 39 :   0.1875 0.2500 0.0000  plane waves:   12280
 k-point 40 :  -0.0625 0.0625 0.0000  plane waves:   12329
 k-point 41 :  -0.1250-0.0625 0.0000  plane waves:   12329
 k-point 42 :  -0.0625-0.1250 0.0000  plane waves:   12329
 k-point 43 :   0.1875 0.1875 0.0000  plane waves:   12277
 k-point 44 :   0.0000 0.1875 0.0000  plane waves:   12277
 k-point 45 :  -0.1875 0.0000 0.0000  plane waves:   12277
 k-point 46 :   0.3125 0.1875 0.0000  plane waves:   12288
 k-point 47 :   0.1250 0.3125 0.0000  plane waves:   12288
 k-point 48 :  -0.1875 0.1250 0.0000  plane waves:   12288
 k-point 49 :   0.1250-0.1875 0.0000  plane waves:   12288
 k-point 50 :  -0.1875-0.3125 0.0000  plane waves:   12288
 k-point 51 :  -0.3125-0.1250 0.0000  plane waves:   12288
 k-point 52 :   0.4375 0.1875 0.0000  plane waves:   12234
 k-point 53 :   0.2500 0.4375 0.0000  plane waves:   12234
 k-point 54 :  -0.1875 0.2500 0.0000  plane waves:   12234
 k-point 55 :   0.2500-0.1875 0.0000  plane waves:   12234
 k-point 56 :  -0.1875-0.4375 0.0000  plane waves:   12234
 k-point 57 :  -0.4375-0.2500 0.0000  plane waves:   12234
 k-point 58 :  -0.4375 0.1875 0.0000  plane waves:   12216
 k-point 59 :   0.3750-0.4375 0.0000  plane waves:   12216
 k-point 60 :  -0.1875 0.3750 0.0000  plane waves:   12216
 k-point 61 :   0.3750-0.1875 0.0000  plane waves:   12216
 k-point 62 :  -0.1875 0.4375 0.0000  plane waves:   12216
 k-point 63 :   0.4375-0.3750 0.0000  plane waves:   12216
 k-point 64 :  -0.3125 0.1875 0.0000  plane waves:   12215
 k-point 65 :   0.5000-0.3125 0.0000  plane waves:   12215
 k-point 66 :  -0.1875 0.5000 0.0000  plane waves:   12215
 k-point 67 :   0.5000-0.1875 0.0000  plane waves:   12215
 k-point 68 :  -0.1875 0.3125 0.0000  plane waves:   12215
 k-point 69 :   0.3125 0.5000 0.0000  plane waves:   12215
 k-point 70 :  -0.1875 0.1875 0.0000  plane waves:   12289
 k-point 71 :  -0.3750-0.1875 0.0000  plane waves:   12289
 k-point 72 :  -0.1875-0.3750 0.0000  plane waves:   12289
 k-point 73 :   0.3125 0.3125 0.0000  plane waves:   12275
 k-point 74 :   0.0000 0.3125 0.0000  plane waves:   12275
 k-point 75 :  -0.3125 0.0000 0.0000  plane waves:   12275
 k-point 76 :   0.4375 0.3125 0.0000  plane waves:   12239
 k-point 77 :   0.1250 0.4375 0.0000  plane waves:   12239
 k-point 78 :  -0.3125 0.1250 0.0000  plane waves:   12239
 k-point 79 :   0.1250-0.3125 0.0000  plane waves:   12239
 k-point 80 :  -0.3125-0.4375 0.0000  plane waves:   12239
 k-point 81 :  -0.4375-0.1250 0.0000  plane waves:   12239
 k-point 82 :  -0.4375 0.3125 0.0000  plane waves:   12235
 k-point 83 :   0.2500-0.4375 0.0000  plane waves:   12235
 k-point 84 :  -0.3125 0.2500 0.0000  plane waves:   12235
 k-point 85 :   0.2500-0.3125 0.0000  plane waves:   12235
 k-point 86 :  -0.3125 0.4375 0.0000  plane waves:   12235
 k-point 87 :   0.4375-0.2500 0.0000  plane waves:   12235
 k-point 88 :  -0.3125 0.3125 0.0000  plane waves:   12232
 k-point 89 :   0.3750-0.3125 0.0000  plane waves:   12232
 k-point 90 :  -0.3125 0.3750 0.0000  plane waves:   12232
 k-point 91 :   0.4375 0.4375 0.0000  plane waves:   12200
 k-point 92 :   0.0000 0.4375 0.0000  plane waves:   12200
 k-point 93 :  -0.4375-0.0000 0.0000  plane waves:   12200
 k-point 94 :  -0.4375 0.4375 0.0000  plane waves:   12214
 k-point 95 :   0.1250-0.4375 0.0000  plane waves:   12214
 k-point 96 :  -0.4375 0.1250 0.0000  plane waves:   12214

 maximum and minimum number of plane-waves per node :      3101     2992

 maximum number of plane-waves:     12329
 maximum index in each direction: 
   IXMAX=    8   IYMAX=    8   IZMAX=   46
   IXMIN=   -8   IYMIN=   -8   IZMIN=  -46


 real space projection operators:
  total allocation   :       5104.12 KBytes
  max/ min on nodes  :       1277.35       1274.74


 parallel 3D FFT for wavefunctions:
    minimum data exchange during FFTs selected (reduces bandwidth)
 parallel 3D FFT for charge:
    minimum data exchange during FFTs selected (reduces bandwidth)


 total amount of memory used by VASP MPI-rank0   164323. kBytes
=======================================================================

   base      :      30000. kBytes
   nonlr-proj:       2370. kBytes
   fftplans  :       2967. kBytes
   grid      :       6321. kBytes
   one-center:         93. kBytes
   wavefun   :     122572. kBytes
 
     INWAV:  cpu time    0.0000: real time    0.0000
 Broyden mixing: mesh for mixing (old mesh)
   NGX = 17   NGY = 17   NGZ = 93
  (NGX  = 56   NGY  = 56   NGZ  =288)
  gives a total of  26877 points

 initial charge density was supplied:
 charge density of overlapping atoms calculated
 number of electron     168.0000000 magnetization 
 keeping initial charge density in first step


--------------------------------------------------------------------------------------------------------


 Maximum index for non-local projection operator          542
 Maximum index for augmentation-charges          716 (set IRDMAX)


--------------------------------------------------------------------------------------------------------


 First call to EWALD:  gamma=   0.189
 Maximum number of real-space cells 5x 5x 1
 Maximum number of reciprocal cells 2x 2x 8

    FEWALD:  cpu time    0.0013: real time    0.0013


--------------------------------------- Iteration      1(   1)  ---------------------------------------


    POTLOK:  cpu time    0.0261: real time    0.0322
    SETDIJ:  cpu time    0.0035: real time    0.0035
     EDDAV:  cpu time   14.4787: real time   14.4826
       DOS:  cpu time    0.0072: real time    0.0072
    --------------------------------------------
      LOOP:  cpu time   14.5155: real time   14.5255

 eigenvalue-minimisations  : 19296
 total energy-change (2. order) : 0.1028394E+04  (-0.5831700E+04)
 number of electron     168.0000000 magnetization 
 augmentation part      168.0000000 magnetization 

 Free energy of the ion-electron system (eV)
  ---------------------------------------------------
  alpha Z        PSCENC =       324.87461712
  Ewald energy   TEWEN  =    101180.78112220
  -Hartree energ DENC   =   -113469.40553438
  -exchange      EXHF   =         0.00000000
  -V(xc)+E(xc)   XCENC  =        69.10059535
  PAW double counting   =     11288.27476651   -10829.50941267
  entropy T*S    EENTRO =         0.00112954
  eigenvalues    EBANDS =       573.63924666
  atomic energy  EATOM  =     11890.63736546
  Solvation  Ediel_sol  =         0.00000000
  ---------------------------------------------------
  free energy    TOTEN  =      1028.39389578 eV

  energy without entropy =     1028.39276625  energy(sigma->0) =     1028.39351927


--------------------------------------------------------------------------------------------------------




--------------------------------------- Iteration      1(   2)  ---------------------------------------


     EDDAV:  cpu time   17.1470: real time   17.1500
       DOS:  cpu time    0.0085: real time    0.0085
    --------------------------------------------
      LOOP:  cpu time   17.1554: real time   17.1584

 eigenvalue-minimisations  : 23992
 total energy-change (2. order) :-0.1058009E+04  (-0.9840459E+03)
 number of electron     168.0000000 magnetization 
 augmentation part      168.0000000 magnetization 

 Free energy of the ion-electron system (eV)
  ---------------------------------------------------
  alpha Z        PSCENC =       324.87461712
  Ewald energy   TEWEN  =    101180.78112220
  -Hartree energ DENC   =   -113469.40553438
  -exchange      EXHF   =         0.00000000
  -V(xc)+E(xc)   XCENC  =        69.10059535
  PAW double counting   =     11288.27476651   -10829.50941267
  entropy T*S    EENTRO =         0.00518324
  eigenvalues    EBANDS =      -484.37403260
  atomic energy  EATOM  =     11890.63736546
  Solvation  Ediel_sol  =         0.00000000
  ---------------------------------------------------
  free energy    TOTEN  =       -29.61532978 eV

  energy without entropy =      -29.62051302  energy(sigma->0) =      -29.61705752


--------------------------------------------------------------------------------------------------------




--------------------------------------- Iteration      1(   3)  ---------------------------------------


     EDDAV:  cpu time   16.6185: real time   16.6240
       DOS:  cpu time    0.0089: real time    0.0089
    --------------------------------------------
      LOOP:  cpu time   16.6274: real time   16.6328

 eigenvalue-minimisations  : 23104
 total energy-change (2. order) :-0.9151113E+02  (-0.8466538E+02)
 number of electron     168.0000000 magnetization 
 augmentation part      168.0000000 magnetization 

 Free energy of the ion-electron system (eV)
  ---------------------------------------------------
  alpha Z        PSCENC =       324.87461712
  Ewald energy   TEWEN  =    101180.78112220
  -Hartree energ DENC   =   -113469.40553438
  -exchange      EXHF   =         0.00000000
  -V(xc)+E(xc)   XCENC  =        69.10059535
  PAW double counting   =     11288.27476651   -10829.50941267
  entropy T*S    EENTRO =        -0.01526780
  eigenvalues    EBANDS =      -575.86471406
  atomic energy  EATOM  =     11890.63736546
  Solvation  Ediel_sol  =         0.00000000
  ---------------------------------------------------
  free energy    TOTEN  =      -121.12646227 eV

  energy without entropy =     -121.11119447  energy(sigma->0) =     -121.12137301


--------------------------------------------------------------------------------------------------------




--------------------------------------- Iteration      1(   4)  ---------------------------------------


     EDDAV:  cpu time   18.0242: real time   18.0282
       DOS:  cpu time    0.0089: real time    0.0089
    --------------------------------------------
      LOOP:  cpu time   18.0331: real time   18.0371

 eigenvalue-minimisations  : 25528
 total energy-change (2. order) :-0.4411248E+01  (-0.4202779E+01)
 number of electron     168.0000000 magnetization 
 augmentation part      168.0000000 magnetization 

 Free energy of the ion-electron system (eV)
  ---------------------------------------------------
  alpha Z        PSCENC =       324.87461712
  Ewald energy   TEWEN  =    101180.78112220
  -Hartree energ DENC   =   -113469.40553438
  -exchange      EXHF   =         0.00000000
  -V(xc)+E(xc)   XCENC  =        69.10059535
  PAW double counting   =     11288.27476651   -10829.50941267
  entropy T*S    EENTRO =        -0.02275402
  eigenvalues    EBANDS =      -580.26847553
  atomic energy  EATOM  =     11890.63736546
  Solvation  Ediel_sol  =         0.00000000
  ---------------------------------------------------
  free energy    TOTEN  =      -125.53770996 eV

  energy without entropy =     -125.51495594  energy(sigma->0) =     -125.53012529


--------------------------------------------------------------------------------------------------------




--------------------------------------- Iteration      1(   5)  ---------------------------------------


     EDDAV:  cpu time   18.7361: real time   18.7512
       DOS:  cpu time    0.0090: real time    0.0090
    CHARGE:  cpu time    0.7117: real time    0.7117
    MIXING:  cpu time    0.0010: real time    0.0010
    --------------------------------------------
      LOOP:  cpu time   19.4577: real time   19.4729

 eigenvalue-minimisations  : 26292
 total energy-change (2. order) :-0.1376665E+00  (-0.1364965E+00)
 number of electron     167.9999990 magnetization 
 augmentation part       46.8319295 magnetization 

 Broyden mixing:
  rms(total) = 0.43119E+01    rms(broyden)= 0.43117E+01
  rms(prec ) = 0.43616E+01
  weight for this iteration     100.00

 Free energy of the ion-electron system (eV)
  ---------------------------------------------------
  alpha Z        PSCENC =       324.87461712
  Ewald energy   TEWEN  =    101180.78112220
  -Hartree energ DENC   =   -113469.40553438
  -exchange      EXHF   =         0.00000000
  -V(xc)+E(xc)   XCENC  =        69.10059535
  PAW double counting   =     11288.27476651   -10829.50941267
  entropy T*S    EENTRO =        -0.02318904
  eigenvalues    EBANDS =      -580.40570699
  atomic energy  EATOM  =     11890.63736546
  Solvation  Ediel_sol  =         0.00000000
  ---------------------------------------------------
  free energy    TOTEN  =      -125.67537644 eV

  energy without entropy =     -125.65218740  energy(sigma->0) =     -125.66764676


--------------------------------------------------------------------------------------------------------




--------------------------------------- Iteration      1(   6)  ---------------------------------------


    POTLOK:  cpu time    0.0236: real time    0.0241
    SETDIJ:  cpu time    0.0035: real time    0.0035
     EDDAV:  cpu time   16.7359: real time   16.7390
       DOS:  cpu time    0.0102: real time    0.0102
    CHARGE:  cpu time    0.7161: real time    0.7163
    MIXING:  cpu time    0.0011: real time    0.0011
    --------------------------------------------
      LOOP:  cpu time   17.4905: real time   17.4941

 eigenvalue-minimisations  : 23352
 total energy-change (2. order) : 0.7432076E+01  (-0.3702446E+01)
 number of electron     167.9999991 magnetization 
 augmentation part       49.8820903 magnetization 

 Broyden mixing:
  rms(total) = 0.32275E+01    rms(broyden)= 0.32274E+01
  rms(prec ) = 0.33257E+01
  weight for this iteration     100.00

 eigenvalues of (default mixing * dielectric matrix)
  average eigenvalue GAMMA=   1.1425
  1.1425

 Free energy of the ion-electron system (eV)
  ---------------------------------------------------
  alpha Z        PSCENC =       324.87461712
  Ewald energy   TEWEN  =    101180.78112220
  -Hartree energ DENC   =   -113233.94316022
  -exchange      EXHF   =         0.00000000
  -V(xc)+E(xc)   XCENC  =        65.88203162
  PAW double counting   =     12535.05451272   -12100.47370527
  entropy T*S    EENTRO =        -0.01891038
  eigenvalues    EBANDS =      -781.03717352
  atomic energy  EATOM  =     11890.63736546
  Solvation  Ediel_sol  =         0.00000000
  ---------------------------------------------------
  free energy    TOTEN  =      -118.24330027 eV

  energy without entropy =     -118.22438989  energy(sigma->0) =     -118.23699681


--------------------------------------------------------------------------------------------------------




--------------------------------------- Iteration      1(   7)  ---------------------------------------


    POTLOK:  cpu time    0.0221: real time    0.0238
    SETDIJ:  cpu time    0.0034: real time    0.0034
     EDDAV:  cpu time   16.6639: real time   16.6666
       DOS:  cpu time    0.0100: real time    0.0100
    CHARGE:  cpu time    0.7104: real time    0.7105
    MIXING:  cpu time    0.0011: real time    0.0011
    --------------------------------------------
      LOOP:  cpu time   17.4110: real time   17.4155

 eigenvalue-minimisations  : 23164
 total energy-change (2. order) :-0.1911076E+02  (-0.8418426E+01)
 number of electron     167.9999996 magnetization 
 augmentation part       49.1056831 magnetization 

 Broyden mixing:
  rms(total) = 0.42650E+01    rms(broyden)= 0.42649E+01
  rms(prec ) = 0.47510E+01
  weight for this iteration     100.00

 eigenvalues of (default mixing * dielectric matrix)
  average eigenvalue GAMMA=   1.1082
  1.9433  0.2731

 Free energy of the ion-electron system (eV)
  ---------------------------------------------------
  alpha Z        PSCENC =       324.87461712
  Ewald energy   TEWEN  =    101180.78112220
  -Hartree energ DENC   =   -113419.31629477
  -exchange      EXHF   =         0.00000000
  -V(xc)+E(xc)   XCENC  =        65.42111935
  PAW double counting   =     13512.90082430   -13087.26884603
  entropy T*S    EENTRO =         0.00075869
  eigenvalues    EBANDS =      -605.38472956
  atomic energy  EATOM  =     11890.63736546
  Solvation  Ediel_sol  =         0.00000000
  ---------------------------------------------------
  free energy    TOTEN  =      -137.35406323 eV

  energy without entropy =     -137.35482193  energy(sigma->0) =     -137.35431613


--------------------------------------------------------------------------------------------------------




--------------------------------------- Iteration      1(   8)  ---------------------------------------


    POTLOK:  cpu time    0.0230: real time    0.0231
    SETDIJ:  cpu time    0.0035: real time    0.0035
     EDDAV:  cpu time   17.9586: real time   17.9615
       DOS:  cpu time    0.0100: real time    0.0100
    CHARGE:  cpu time    0.7138: real time    0.7139
    MIXING:  cpu time    0.0013: real time    0.0013
    --------------------------------------------
      LOOP:  cpu time   18.7101: real time   18.7133

 eigenvalue-minimisations  : 25468
 total energy-change (2. order) : 0.1827234E+02  (-0.4883513E+01)
 number of electron     167.9999987 magnetization 
 augmentation part       50.6539913 magnetization 

 Broyden mixing:
  rms(total) = 0.18489E+01    rms(broyden)= 0.18487E+01
  rms(prec ) = 0.21377E+01
  weight for this iteration     100.00

 eigenvalues of (default mixing * dielectric matrix)
  average eigenvalue GAMMA=   0.9437
  2.0391  0.5158  0.2763

 Free energy of the ion-electron system (eV)
  ---------------------------------------------------
  alpha Z        PSCENC =       324.87461712
  Ewald energy   TEWEN  =    101180.78112220
  -Hartree energ DENC   =   -113276.80817962
  -exchange      EXHF   =         0.00000000
  -V(xc)+E(xc)   XCENC  =        64.91864186
  PAW double counting   =     14511.77490906   -14096.57387953
  entropy T*S    EENTRO =        -0.01941932
  eigenvalues    EBANDS =      -718.66689621
  atomic energy  EATOM  =     11890.63736546
  Solvation  Ediel_sol  =         0.00000000
[...]
     21      -5.1616      2.00000
     22      -5.1086      2.00000
     23      -5.0146      2.00000
     24      -4.8760      2.00000
     25      -4.7924      2.00000
     26      -4.7614      2.00000
     27      -4.7058      2.00000
     28      -4.6458      2.00000
     29      -4.5802      2.00000
     30      -4.5576      2.00000
     31      -4.5076      2.00000
     32      -4.4161      2.00000
     33      -4.3039      2.00000
     34      -4.1717      2.00000
     35      -4.1286      2.00000
     36      -4.0323      2.00000
     37      -4.0099      2.00000
     38      -3.9497      2.00000
     39      -3.8701      2.00000
     40      -3.8232      2.00000
     41      -3.7034      2.00000
     42      -3.6304      2.00000
     43      -3.6082      2.00000
     44      -3.5386      2.00000
     45      -3.4723      2.00000
     46      -3.4466      2.00000
     47      -3.3393      2.00000
     48      -3.3125      2.00000
     49      -3.2148      2.00000
     50      -3.1699      2.00000
     51      -3.1324      2.00000
     52      -3.0841      2.00000
     53      -3.0265      2.00000
     54      -2.9493      2.00000
     55      -2.8918      2.00000
     56      -2.8000      2.00000
     57      -2.7125      2.00000
     58      -2.5623      2.00000
     59      -2.4958      2.00000
     60      -2.3777      2.00000
     61      -2.2977      2.00000
     62      -2.2382      2.00000
     63      -2.1816      2.00000
     64      -2.1374      2.00000
     65      -2.0549      2.00000
     66      -2.0107      2.00000
     67      -1.8870      2.00000
     68      -1.8593      2.00000
     69      -1.7247      2.00000
     70      -1.6989      2.00000
     71      -1.6377      2.00000
     72      -1.5459      2.00000
     73      -1.4754      2.00000
     74      -1.4525      2.00000
     75      -1.3935      2.00000
     76      -1.2464      2.00000
     77      -1.2021      2.00000
     78      -1.0640      2.00000
     79      -0.9551      2.00004
     80      -0.8929      2.00025
     81      -0.8112      2.00195
     82      -0.6554      2.03218
     83      -0.5599      2.07001
     84      -0.4610      1.97292
     85      -0.3200      1.13733
     86      -0.3080      1.03591
     87      -0.2272      0.40201
     88      -0.1351     -0.00052
     89      -0.0625     -0.07081
     90       0.6358     -0.00000
     91       0.8969     -0.00000
     92       1.1237     -0.00000
     93       1.3746     -0.00000
     94       1.9605     -0.00000
     95       2.7206     -0.00000
     96       2.8162     -0.00000
     97       3.1711     -0.00000
     98       3.7599     -0.00000
     99       4.0531     -0.00000
    100       4.4872     -0.00000

 k-point    96 :      -0.4375    0.1250    0.0000
  band No.  band energies     occupation 
      1     -12.5202      2.00000
      2      -7.8544      2.00000
      3      -7.7330      2.00000
      4      -7.0313      2.00000
      5      -6.7972      2.00000
      6      -6.3922      2.00000
      7      -6.3304      2.00000
      8      -6.1540      2.00000
      9      -6.0614      2.00000
     10      -5.9195      2.00000
     11      -5.8442      2.00000
     12      -5.7875      2.00000
     13      -5.7152      2.00000
     14      -5.6988      2.00000
     15      -5.6841      2.00000
     16      -5.5847      2.00000
     17      -5.4689      2.00000
     18      -5.3902      2.00000
     19      -5.3204      2.00000
     20      -5.2462      2.00000
     21      -5.2111      2.00000
     22      -5.1602      2.00000
     23      -4.9866      2.00000
     24      -4.9300      2.00000
     25      -4.7842      2.00000
     26      -4.7662      2.00000
     27      -4.6809      2.00000
     28      -4.6609      2.00000
     29      -4.5685      2.00000
     30      -4.5294      2.00000
     31      -4.5055      2.00000
     32      -4.4013      2.00000
     33      -4.2522      2.00000
     34      -4.2053      2.00000
     35      -4.1314      2.00000
     36      -4.0614      2.00000
     37      -3.9996      2.00000
     38      -3.9639      2.00000
     39      -3.8918      2.00000
     40      -3.8651      2.00000
     41      -3.8040      2.00000
     42      -3.6905      2.00000
     43      -3.6560      2.00000
     44      -3.6090      2.00000
     45      -3.5391      2.00000
     46      -3.5046      2.00000
     47      -3.3958      2.00000
     48      -3.2974      2.00000
     49      -3.2745      2.00000
     50      -3.1600      2.00000
     51      -3.1318      2.00000
     52      -3.0927      2.00000
     53      -2.9813      2.00000
     54      -2.8985      2.00000
     55      -2.8397      2.00000
     56      -2.7804      2.00000
     57      -2.6482      2.00000
     58      -2.6373      2.00000
     59      -2.4823      2.00000
     60      -2.3887      2.00000
     61      -2.3646      2.00000
     62      -2.2945      2.00000
     63      -2.2062      2.00000
     64      -2.1243      2.00000
     65      -2.0552      2.00000
     66      -1.9461      2.00000
     67      -1.8657      2.00000
     68      -1.8276      2.00000
     69      -1.7098      2.00000
     70      -1.6716      2.00000
     71      -1.6056      2.00000
     72      -1.5432      2.00000
     73      -1.5007      2.00000
     74      -1.4466      2.00000
     75      -1.3725      2.00000
     76      -1.2240      2.00000
     77      -1.0949      2.00000
     78      -1.0584      2.00000
     79      -1.0210      2.00000
     80      -0.8554      2.00068
     81      -0.7421      2.00820
     82      -0.7104      2.01432
     83      -0.5636      2.06937
     84      -0.4357      1.89029
     85      -0.3444      1.33659
     86      -0.2655      0.68311
     87      -0.2083      0.28568
     88      -0.0294     -0.06552
     89       0.0608     -0.02717
     90       0.6147     -0.00000
     91       0.8208     -0.00000
     92       1.1410     -0.00000
     93       1.4013     -0.00000
     94       1.8372     -0.00000
     95       2.4538     -0.00000
     96       2.8023     -0.00000
     97       3.3712     -0.00000
     98       3.7122     -0.00000
     99       4.1643     -0.00000
    100       4.3683     -0.00000


--------------------------------------------------------------------------------------------------------


 soft charge-density along one line, spin component           1
         0         1         2         3         4         5         6         7         8         9
 total charge-density along one line
 
 pseudopotential strength for first ion, spin component:           1
 -7.936   0.001  -0.004  -0.011   0.001  -8.085   0.001  -0.004
  0.001  -7.911   0.001   0.002  -0.007   0.001  -8.060   0.001
 -0.004   0.001  -7.924  -0.005   0.003  -0.004   0.001  -8.073
 -0.011   0.002  -0.005  -7.917   0.001  -0.010   0.002  -0.005
  0.001  -0.007   0.003   0.001  -7.935   0.001  -0.007   0.003
 -8.085   0.001  -0.004  -0.010   0.001  -8.217   0.001  -0.004
  0.001  -8.060   0.001   0.002  -0.007   0.001  -8.194   0.001
 -0.004   0.001  -8.073  -0.005   0.003  -0.004   0.001  -8.206
 -0.010   0.002  -0.005  -8.066   0.001  -0.010   0.002  -0.005
  0.001  -0.007   0.003   0.001  -8.083   0.001  -0.007   0.003
 -0.000  -0.000  -0.004   0.002   0.001  -0.000  -0.000  -0.004
 -0.001  -0.001  -0.006   0.003   0.001  -0.001  -0.001  -0.006
  0.001   0.000   0.000   0.000   0.000   0.001   0.000   0.000
  0.000  -0.001   0.000   0.001  -0.000   0.000  -0.001   0.000
 -0.000   0.000  -0.000   0.000   0.001  -0.000   0.000  -0.000
  0.001   0.000   0.000   0.000   0.000   0.001   0.000   0.000
  0.000  -0.001   0.000   0.001  -0.000   0.000  -0.001   0.000
 -0.000   0.000  -0.000   0.000   0.001  -0.000   0.000  -0.000
 total augmentation occupancy for first ion, spin component:           1
  5.973   0.228  -0.071  -0.076   0.099  -3.985  -0.208   0.044  -0.072  -0.078  -0.055   0.011   0.007  -0.019  -0.004   0.001
  0.228   6.055  -0.002   0.198   0.220  -0.208  -3.856   0.030  -0.198  -0.333   0.086  -0.021   0.016   0.038  -0.018  -0.001
 -0.071  -0.002   6.179  -0.055   0.047   0.044   0.030  -4.201  -0.023  -0.034   0.159  -0.027   0.027   0.038  -0.049  -0.000
 -0.076   0.198  -0.055   5.820   0.254  -0.072  -0.198  -0.023  -3.653  -0.229  -0.183   0.029  -0.018  -0.065   0.028   0.000
  0.099   0.220   0.047   0.254   6.091  -0.078  -0.333  -0.034  -0.229  -4.082   0.009  -0.005   0.001   0.008   0.007   0.001
 -3.985  -0.208   0.044  -0.072  -0.078   3.901   0.193  -0.022   0.184   0.064   0.060  -0.020  -0.010   0.017   0.005  -0.000
 -0.208  -3.856   0.030  -0.198  -0.333   0.193   3.605  -0.050   0.200   0.419  -0.087   0.028  -0.016  -0.035   0.016   0.001
  0.044   0.030  -4.201  -0.023  -0.034  -0.022  -0.050   4.123   0.084   0.024  -0.155   0.028  -0.027  -0.033   0.048   0.000
 -0.072  -0.198  -0.023  -3.653  -0.229   0.184   0.200   0.084   3.425   0.210   0.184  -0.043   0.016   0.060  -0.026  -0.000
 -0.078  -0.333  -0.034  -0.229  -4.082   0.064   0.419   0.024   0.210   3.982  -0.014   0.010  -0.004  -0.007  -0.011  -0.000
 -0.055   0.086   0.159  -0.183   0.009   0.060  -0.087  -0.155   0.184  -0.014   2.970  -0.798   0.001  -0.013  -0.002  -0.000
  0.011  -0.021  -0.027   0.029  -0.005  -0.020   0.028   0.028  -0.043   0.010  -0.798   0.241   0.003   0.006  -0.004  -0.000
  0.007   0.016   0.027  -0.018   0.001  -0.010  -0.016  -0.027   0.016  -0.004   0.001   0.003   0.248  -0.003   0.001  -0.008
 -0.019   0.038   0.038  -0.065   0.008   0.017  -0.035  -0.033   0.060  -0.007  -0.013   0.006  -0.003   0.231   0.008   0.000
 -0.004  -0.018  -0.049   0.028   0.007   0.005   0.016   0.048  -0.026  -0.011  -0.002  -0.004   0.001   0.008   0.249  -0.000
  0.001  -0.001  -0.000   0.000   0.001  -0.000   0.001   0.000  -0.000  -0.000  -0.000  -0.000  -0.008   0.000  -0.000   0.000
  0.000  -0.001  -0.001   0.002  -0.000  -0.000   0.001   0.001  -0.001   0.000   0.001  -0.000   0.000  -0.008  -0.000  -0.000
 -0.001   0.000   0.000  -0.001   0.001   0.000  -0.000  -0.001   0.001  -0.000   0.000   0.000  -0.000  -0.000  -0.008   0.000


------------------------ aborting loop because EDIFF is reached ----------------------------------------



 DIPCOR: dipole corrections for dipol
 direction  3 min pos    21,
 dipolmoment           0.000000      0.000000     -0.244567 electrons x Angstroem
 Tr[quadrupol]      -936.825937

 energy correction for charged system         0.000000 eV
 dipol+quadrupol energy correction            0.006567 eV
 added-field ion interaction          0.000000 eV  (added to PSCEN)

 
  *************** adding dipol energy to TOTEN NOW **************** 
    CHARGE:  cpu time    0.7110: real time    0.7111
    FORLOC:  cpu time    0.0071: real time    0.0071
    FORNL :  cpu time    3.2499: real time    3.2507
    STRESS:  cpu time    9.7745: real time    9.7762
    FORCOR:  cpu time    0.0285: real time    0.0285
    FORHAR:  cpu time    0.0120: real time    0.0120
    MIXING:  cpu time    0.0038: real time    0.0038
    OFIELD:  cpu time    0.0000: real time    0.0000

  FORCE on cell =-STRESS in cart. coord.  units (eV):
  Direction    XX          YY          ZZ          XY          YZ          ZX
  --------------------------------------------------------------------------------------
  Alpha Z   324.87462   324.87462   324.87462
  Ewald  110041.70945110055.15041************    24.20833   -12.32223    -5.66590
  Hartree112547.00559112559.01495************    16.03831    -3.74064    -0.45907
  E(xc)    -737.09981  -737.11815  -741.19894     0.03927     0.02658    -0.08078
  Local  ************************227731.35456   -40.10881    14.71018     3.33239
  n-local    45.87074    45.95739    37.98992     0.12270    -0.92570    -0.31633
  augment   836.20440   836.63841   856.85015     0.01978     0.25264     1.05543
  Kinetic  2385.94695  2386.30562  2441.68834     0.06586     1.66462     2.72125
  Fock        0.00000     0.00000     0.00000     0.00000     0.00000     0.00000
  -------------------------------------------------------------------------------------
  Total     -11.37792   -11.31243    -1.46747     0.38543    -0.33456     0.58700
  in kB     -22.11968   -21.99236    -2.85289     0.74932    -0.65041     1.14117
  external pressure =      -15.65 kB  Pullay stress =        0.00 kB


 VOLUME and BASIS-vectors are now :
 -----------------------------------------------------------------------------
  energy-cutoff  :      350.00
  volume of cell :      824.13
      direct lattice vectors                 reciprocal lattice vectors
     5.557859300  0.000000000  0.000000000     0.179925390 -0.103879972  0.000000000
     2.778929650  4.813247345  0.000000000     0.000000000  0.207759944  0.000000000
     0.000000000  0.000000000 30.806959674     0.000000000  0.000000000  0.032460198

  length of vectors
     5.557859300  5.557859300 30.806959674     0.207759944  0.207759944  0.032460198


 FORCES acting on ions
    electron-ion (+dipol)            ewald-force                    non-local-force                 convergence-correction
 -----------------------------------------------------------------------------------------------
   0.350E+01 -.390E+01 -.824E+03   -.383E+01 0.410E+01 0.824E+03   0.329E+00 -.213E+00 -.189E-01   -.513E-03 0.750E-05 0.844E-03
   0.237E+01 0.212E+01 -.134E+04   -.257E+01 -.232E+01 0.134E+04   0.214E+00 0.162E+00 -.143E+01   -.187E-04 -.531E-04 -.128E-02
   -.288E+01 0.526E+01 -.359E+03   0.276E+01 -.622E+01 0.362E+03   0.257E+00 0.115E+01 -.276E+01   -.212E-04 0.474E-04 -.424E-03
   0.519E+01 -.443E+02 -.345E+03   -.563E+01 0.494E+02 0.347E+03   0.424E+00 -.510E+01 -.195E+01   0.127E-04 -.231E-03 -.349E-03
   0.390E+02 0.248E+02 -.343E+03   -.435E+02 -.277E+02 0.344E+03   0.446E+01 0.294E+01 -.149E+01   0.209E-03 0.117E-03 -.346E-03
   -.407E+02 0.219E+02 -.344E+03   0.453E+02 -.243E+02 0.346E+03   -.459E+01 0.240E+01 -.181E+01   -.221E-03 0.966E-04 -.345E-03
   -.206E+01 0.131E+01 0.266E+04   0.202E+01 -.127E+01 -.266E+04   0.106E-01 -.278E-01 -.148E+00   -.158E-04 0.125E-03 0.281E-02
   0.151E+01 0.678E+01 -.257E+04   -.143E+01 -.702E+01 0.257E+04   -.956E-01 0.867E-01 0.136E+01   -.220E-03 -.150E-03 -.325E-02
   -.375E+01 -.708E+01 -.255E+04   0.340E+01 0.585E+01 0.256E+04   0.351E+00 0.120E+01 -.509E+01   0.247E-03 0.791E-04 -.389E-02
   0.249E+01 -.719E+01 -.257E+04   -.179E+01 0.685E+01 0.257E+04   -.572E+00 0.377E+00 0.146E+01   0.103E-03 0.214E-03 -.349E-02
   -.565E+01 -.615E+01 -.264E+04   0.495E+01 0.547E+01 0.264E+04   0.644E+00 0.693E+00 -.520E+01   -.936E-04 -.902E-04 -.239E-02
   0.205E+01 -.168E+01 0.295E+04   -.193E+01 0.160E+01 -.295E+04   -.657E-01 0.120E+00 -.809E+00   -.349E-04 -.871E-05 0.284E-02
   -.454E+00 0.459E+01 -.735E+03   0.549E+00 -.478E+01 0.735E+03   -.159E+00 0.233E+00 0.314E+00   0.204E-03 -.167E-03 0.893E-03
   -.435E+01 -.367E+01 0.115E+04   0.449E+01 0.383E+01 -.115E+04   -.341E-01 -.464E-01 0.969E-01   0.132E-03 -.115E-02 0.705E-02
   0.435E+01 0.137E+01 0.113E+04   -.459E+01 -.140E+01 -.113E+04   0.845E-01 -.495E-01 -.692E+00   -.150E-03 0.863E-04 0.614E-02
   0.449E+01 0.485E+01 0.116E+04   -.464E+01 -.496E+01 -.116E+04   0.354E-02 0.169E-01 -.124E+00   0.110E-02 0.437E-03 0.714E-02
   -.415E+01 -.165E+01 0.114E+04   0.428E+01 0.177E+01 -.114E+04   0.161E-01 -.343E-01 -.614E+00   -.106E-02 0.602E-03 0.699E-02
   -.303E+01 0.181E+01 0.296E+04   0.287E+01 -.162E+01 -.296E+04   0.198E+00 -.172E+00 -.684E+00   -.155E-03 -.433E-04 0.270E-02
   0.260E+01 -.766E+00 0.295E+04   -.250E+01 0.772E+00 -.295E+04   -.126E+00 -.311E-01 -.523E+00   0.126E-03 -.354E-04 0.267E-02
   0.578E+00 0.213E+01 -.710E+03   -.777E+00 -.193E+01 0.710E+03   0.233E+00 -.226E+00 0.383E+00   -.195E-03 0.368E-03 0.713E-03
   -.223E+01 -.429E+01 -.748E+03   0.256E+01 0.387E+01 0.749E+03   -.434E+00 0.404E+00 -.424E+00   0.471E-03 -.219E-03 0.624E-03
 -----------------------------------------------------------------------------------------------
   -.113E+01 -.387E+01 0.201E+02   -.666E-13 -.369E-13 0.455E-12   0.115E+01 0.388E+01 -.201E+02   -.957E-04 0.294E-04 0.257E-01
 
 
 POSITION                                       TOTAL-FORCE (eV/Angst)
 -----------------------------------------------------------------------------------
      4.17426      4.00733     16.80618        -0.005409     -0.011796      0.112098
      8.25406      4.69542     21.45301         0.021908     -0.040352     -0.038550
      1.27831      1.76693     20.56140         0.137025      0.192313      0.161216
      5.39668      0.90860     21.84268        -0.023857     -0.016737     -0.068067
      7.37168      4.11397     21.75266        -0.004234     -0.036843     -0.045078
      3.61749      4.21660     21.81828        -0.006473     -0.010415     -0.022436
      2.78444      0.02693     12.13688        -0.026114      0.010505      1.214018
      4.19745      2.36005     19.05418        -0.007601     -0.158606      0.318925
      1.41303      2.35777     19.12607        -0.000906     -0.029349     -0.058221
      5.59136      4.76079     19.05834         0.119843      0.036133      0.324809
      2.78320      4.74511     19.37444        -0.061296      0.006812      0.015813
      0.01554      0.02046     12.14275         0.050172      0.043436     -0.063781
      5.57868      1.57665     16.78271        -0.064272      0.043702     -0.210358
      5.57392      3.22402     14.45760         0.100194      0.114166     -0.411112
      2.79089      3.22467     14.49484        -0.157969     -0.081977     -0.165397
      4.18605      0.82055     14.44731        -0.150162     -0.089096     -0.280008
      1.40449      0.81276     14.48716         0.144485      0.092859     -0.468990
      4.17087      2.43691     12.12666         0.039789      0.016977     -0.097361
      1.40510      2.42782     12.13887        -0.029882     -0.026361     -0.271734
      2.80289      1.58879     16.75999         0.032930     -0.034268      0.037696
      6.98220      3.99427     16.80902        -0.108172     -0.021102      0.016517
 -----------------------------------------------------------------------------------
    total drift:                                0.019494      0.011619      0.005895


--------------------------------------------------------------------------------------------------------



  FREE ENERGIE OF THE ION-ELECTRON SYSTEM (eV)
  ---------------------------------------------------
  free  energy   TOTEN  =      -115.43858641 eV

  energy  without entropy=     -115.41303418  energy(sigma->0) =     -115.43006900
 


--------------------------------------------------------------------------------------------------------


    POTLOK:  cpu time    0.0260: real time    0.0260


--------------------------------------------------------------------------------------------------------


     LOOP+:  cpu time  579.9378: real time  580.1630
    4ORBIT:  cpu time    0.0000: real time    0.0000

 total amount of memory used by VASP MPI-rank0   164323. kBytes
=======================================================================

   base      :      30000. kBytes
   nonlr-proj:       2370. kBytes
   fftplans  :       2967. kBytes
   grid      :       6321. kBytes
   one-center:         93. kBytes
   wavefun   :     122572. kBytes
 
  
  
 General timing and accounting informations for this job:
 ========================================================
  
                  Total CPU time used (sec):      587.522
                            User time (sec):      583.689
                          System time (sec):        3.832
                         Elapsed time (sec):      587.899
  
                   Maximum memory used (kb):      206572.
                   Average memory used (kb):           0.
  
                          Minor page faults:        80997
                          Major page faults:            0
                 Voluntary context switches:          822
