       N       E                     dE             d eps       ncg     rms          rms(c)
DAV:   1     0.101376504609E+04    0.10138E+04   -0.58198E+04 19320   0.103E+03
DAV:   2    -0.289107941453E+02   -0.10427E+04   -0.96880E+03 23760   0.258E+02
DAV:   3    -0.120940853111E+03   -0.92030E+02   -0.85090E+02 23056   0.756E+01
DAV:   4    -0.125417737752E+03   -0.44769E+01   -0.42488E+01 25776   0.168E+01
DAV:   5    -0.125564283697E+03   -0.14655E+00   -0.14519E+00 26896   0.299E+00    0.425E+01
DAV:   6    -0.120093124882E+03    0.54712E+01   -0.32099E+01 22616   0.228E+01    0.347E+01
DAV:   7    -0.171934379163E+03   -0.51841E+02   -0.23037E+02 29080   0.791E+01    0.575E+01
DAV:   8    -0.145757961819E+03    0.26176E+02   -0.10584E+02 27584   0.451E+01    0.454E+01
DAV:   9    -0.134309623037E+03    0.11448E+02   -0.58408E+01 33216   0.455E+01    0.317E+01
DAV:  10    -0.119348201574E+03    0.14961E+02   -0.42071E+01 26860   0.346E+01    0.184E+01
DAV:  11    -0.117268897004E+03    0.20793E+01   -0.24616E+01 27928   0.190E+01    0.144E+01
DAV:  12    -0.116031625081E+03    0.12373E+01   -0.80278E+00 25916   0.103E+01    0.584E+00
DAV:  13    -0.115879223733E+03    0.15240E+00   -0.49826E-01 27216   0.328E+00    0.453E+00
DAV:  14    -0.115829807869E+03    0.49416E-01   -0.10383E-01 22804   0.160E+00    0.408E+00
DAV:  15    -0.115825681697E+03    0.41262E-02   -0.16183E-01 24096   0.169E+00    0.296E+00
DAV:  16    -0.115804582125E+03    0.21100E-01   -0.17374E-01 21868   0.186E+00    0.144E+00
DAV:  17    -0.115780107090E+03    0.24475E-01   -0.71533E-02 23304   0.117E+00    0.889E-01
DAV:  18    -0.115775672442E+03    0.44346E-02   -0.22904E-02 25416   0.588E-01    0.556E-01
DAV:  19    -0.115773294266E+03    0.23782E-02   -0.49407E-03 21944   0.304E-01    0.440E-01
DAV:  20    -0.115771434767E+03    0.18595E-02   -0.37212E-03 26952   0.283E-01    0.311E-01
DAV:  21    -0.115771006825E+03    0.42794E-03   -0.25592E-03 21628   0.227E-01    0.219E-01
DAV:  22    -0.115770932350E+03    0.74476E-04   -0.13325E-03 21984   0.151E-01    0.216E-01
DAV:  23    -0.115770471401E+03    0.46095E-03   -0.64029E-04 24388   0.124E-01    0.124E-01
DAV:  24    -0.115770302753E+03    0.16865E-03   -0.62564E-04 25384   0.103E-01    0.414E-02
DAV:  25    -0.115770327361E+03   -0.24608E-04   -0.84438E-05 19856   0.386E-02    0.277E-02
DAV:  26    -0.115770383310E+03   -0.55948E-04   -0.57155E-05 16680   0.345E-02    0.283E-02
DAV:  27    -0.115770472409E+03   -0.89099E-04   -0.69422E-05 17336   0.399E-02    0.346E-02
DAV:  28    -0.115770605128E+03   -0.13272E-03   -0.67720E-05 14684   0.364E-02    0.183E-02
DAV:  29    -0.115770697577E+03   -0.92449E-04   -0.22810E-05 13420   0.183E-02    0.259E-02
DAV:  30    -0.115770801285E+03   -0.10371E-03   -0.14159E-05 12376   0.146E-02    0.142E-02
DAV:  31    -0.115770873488E+03   -0.72204E-04   -0.47985E-06 11916   0.798E-03    0.949E-03
DAV:  32    -0.115770914631E+03   -0.41143E-04   -0.56338E-06 10996   0.906E-03    0.500E-03
DAV:  33    -0.115770938577E+03   -0.23945E-04   -0.15773E-06 10884   0.468E-03    0.499E-03
DAV:  34    -0.115770944430E+03   -0.58533E-05   -0.56859E-07 10064   0.271E-03
   1 F= -.11577078E+03 E0= -.11576613E+03  d E =-.139394E-01
