 vasp.5.4.4.18Apr17-6-g9f103f2a35 (build Apr 28 2017 10:53:45) complex          
  
 executed on             LinuxIFC date 2019.07.18  16:02:35
 running on   16 total cores
 distrk:  each k-point on   16 cores,    1 groups
 distr:  one band on NCORES_PER_BAND=   4 cores,    4 groups


--------------------------------------------------------------------------------------------------------


 INCAR:
 POTCAR:    PAW_PBE Au 04Oct2007                  
 POTCAR:    PAW_PBE C 08Apr2002                   
 POTCAR:    PAW_PBE H 15Jun2001                   
 POTCAR:    PAW_PBE Ir 06Sep2000                  
 POTCAR:    PAW_PBE Pt 04Feb2005                  
 POTCAR:    PAW_PBE Au 04Oct2007                  
   VRHFIN =Au: s1d10                                                            
   LEXCH  = PE                                                                  
   EATOM  =   926.0867 eV,   68.0654 Ry                                         
                                                                                
   TITEL  = PAW_PBE Au 04Oct2007                                                
   LULTRA =        F    use ultrasoft PP ?                                      
   IUNSCR =        1    unscreen: 0-lin 1-nonlin 2-no                           
   RPACOR =    2.330    partial core radius                                     
   POMASS =  196.966; ZVAL   =   11.000    mass and valenz                      
   RCORE  =    2.500    outmost cutoff radius                                   
   RWIGS  =    2.840; RWIGS  =    1.503    wigner-seitz radius (au A)           
   ENMAX  =  229.943; ENMIN  =  172.457 eV                                      
   ICORE  =        3    local potential                                         
   LCOR   =        T    correct aug charges                                     
   LPAW   =        T    paw PP                                                  
   EAUG   =  356.670                                                            
   DEXC   =    0.000                                                            
   RMAX   =    2.562    core radius for proj-oper                               
   RAUG   =    1.300    factor for augmentation sphere                          
   RDEP   =    2.598    radius for radial grids                                 
   RDEPT  =    2.193    core radius for aug-charge                              
                                                                                
   Atomic configuration                                                         
   16 entries                                                                   
     n  l   j            E        occ.                                          
     1  0  0.50    -80748.5001   2.0000                                         
     2  0  0.50    -14244.7466   2.0000                                         
     2  1  1.50    -12310.9591   6.0000                                         
     3  0  0.50     -3362.1768   2.0000                                         
     3  1  1.50     -2801.5463   6.0000                                         
     3  2  2.50     -2203.8206  10.0000                                         
     4  0  0.50      -729.8168   2.0000                                         
     4  1  1.50      -546.0527   6.0000                                         
     4  2  2.50      -325.7302  10.0000                                         
     4  3  3.50       -81.1472  14.0000                                         
     5  0  0.50      -108.3201   2.0000                                         
     5  1  1.50       -59.7479   6.0000                                         
     5  2  2.50        -6.8783  10.0000                                         
     6  0  0.50        -5.7602   1.0000                                         
     6  1  1.50        -6.8029   0.0000                                         
     5  3  2.50        -1.3606   0.0000                                         
   Description                                                                  
     l       E           TYP  RCUT    TYP  RCUT                                 
     2     -6.8782861     23  2.500                                             
     2     -8.2388687     23  2.500                                             
     0     -5.7601759     23  2.500                                             
     0     -0.8493231     23  2.500                                             
     1     -2.7211652     23  2.500                                             
     1     27.2116520     23  2.500                                             
     3     -1.3605826     23  2.500                                             
  local pseudopotential read in
  partial core-charges read in
  partial kinetic energy density read in
  atomic valenz-charges read in
  non local Contribution for L=           2  read in
    real space projection operators read in
  non local Contribution for L=           2  read in
    real space projection operators read in
  non local Contribution for L=           0  read in
    real space projection operators read in
  non local Contribution for L=           0  read in
    real space projection operators read in
  non local Contribution for L=           1  read in
    real space projection operators read in
  non local Contribution for L=           1  read in
    real space projection operators read in
    PAW grid and wavefunctions read in
 
   number of l-projection  operators is LMAX  =           6
   number of lm-projection operators is LMMAX =          18
 
 POTCAR:    PAW_PBE C 08Apr2002                   
   VRHFIN =C: s2p2                                                              
   LEXCH  = PE                                                                  
   EATOM  =   147.1560 eV,   10.8157 Ry                                         
                                                                                
   TITEL  = PAW_PBE C 08Apr2002                                                 
   LULTRA =        F    use ultrasoft PP ?                                      
   IUNSCR =        1    unscreen: 0-lin 1-nonlin 2-no                           
   RPACOR =    1.200    partial core radius                                     
   POMASS =   12.011; ZVAL   =    4.000    mass and valenz                      
   RCORE  =    1.500    outmost cutoff radius                                   
   RWIGS  =    1.630; RWIGS  =    0.863    wigner-seitz radius (au A)           
   ENMAX  =  400.000; ENMIN  =  300.000 eV                                      
   ICORE  =        2    local potential                                         
   LCOR   =        T    correct aug charges                                     
   LPAW   =        T    paw PP                                                  
   EAUG   =  644.873                                                            
   DEXC   =    0.000                                                            
   RMAX   =    1.529    core radius for proj-oper                               
   RAUG   =    1.300    factor for augmentation sphere                          
   RDEP   =    1.501    radius for radial grids                                 
   RDEPT  =    1.300    core radius for aug-charge                              
                                                                                
   Atomic configuration                                                         
    4 entries                                                                   
     n  l   j            E        occ.                                          
     1  0  0.50      -273.3789   2.0000                                         
     2  0  0.50       -13.7508   2.0000                                         
     2  1  0.50        -5.2854   2.0000                                         
     3  2  1.50        -5.4423   0.0000                                         
   Description                                                                  
     l       E           TYP  RCUT    TYP  RCUT                                 
     0    -13.7508458     23  1.200                                             
     0     -8.2022199     23  1.200                                             
     1     -5.2854383     23  1.500                                             
     1     34.0145650     23  1.500                                             
     2     -5.4423304      7  1.500                                             
  local pseudopotential read in
  partial core-charges read in
  partial kinetic energy density read in
  atomic valenz-charges read in
  non local Contribution for L=           0  read in
    real space projection operators read in
  non local Contribution for L=           0  read in
    real space projection operators read in
  non local Contribution for L=           1  read in
    real space projection operators read in
  non local Contribution for L=           1  read in
    real space projection operators read in
    PAW grid and wavefunctions read in
 
   number of l-projection  operators is LMAX  =           4
   number of lm-projection operators is LMMAX =           8
 
 POTCAR:    PAW_PBE H 15Jun2001                   
   VRHFIN =H: ultrasoft test                                                    
   LEXCH  = PE                                                                  
   EATOM  =    12.4884 eV,    0.9179 Ry                                         
                                                                                
   TITEL  = PAW_PBE H 15Jun2001                                                 
   LULTRA =        F    use ultrasoft PP ?                                      
   IUNSCR =        0    unscreen: 0-lin 1-nonlin 2-no                           
   RPACOR =    0.000    partial core radius                                     
   POMASS =    1.000; ZVAL   =    1.000    mass and valenz                      
   RCORE  =    1.100    outmost cutoff radius                                   
   RWIGS  =    0.700; RWIGS  =    0.370    wigner-seitz radius (au A)           
   ENMAX  =  250.000; ENMIN  =  200.000 eV                                      
   RCLOC  =    0.701    cutoff for local pot                                    
   LCOR   =        T    correct aug charges                                     
   LPAW   =        T    paw PP                                                  
   EAUG   =  400.000                                                            
   RMAX   =    1.123    core radius for proj-oper                               
   RAUG   =    1.200    factor for augmentation sphere                          
   RDEP   =    1.112    radius for radial grids                                 
   RDEPT  =    0.926    core radius for aug-charge                              
                                                                                
   Atomic configuration                                                         
    2 entries                                                                   
     n  l   j            E        occ.                                          
     1  0  0.50        -6.4927   1.0000                                         
     2  1  0.50        -3.4015   0.0000                                         
   Description                                                                  
     l       E           TYP  RCUT    TYP  RCUT                                 
     0     -6.4927494     23  1.100                                             
     0      6.8029130     23  1.100                                             
     1     -4.0817478     23  1.100                                             
  local pseudopotential read in
  atomic valenz-charges read in
  non local Contribution for L=           0  read in
    real space projection operators read in
  non local Contribution for L=           0  read in
    real space projection operators read in
  non local Contribution for L=           1  read in
    real space projection operators read in
    PAW grid and wavefunctions read in
 
   number of l-projection  operators is LMAX  =           3
   number of lm-projection operators is LMMAX =           5
 
 POTCAR:    PAW_PBE Ir 06Sep2000                  
   VRHFIN =Ir: s1d8                                                             
   LEXCH  = PE                                                                  
   EATOM  =   560.1833 eV,   41.1723 Ry                                         
                                                                                
   TITEL  = PAW_PBE Ir 06Sep2000                                                
   LULTRA =        F    use ultrasoft PP ?                                      
   IUNSCR =        1    unscreen: 0-lin 1-nonlin 2-no                           
   RPACOR =    2.250    partial core radius                                     
   POMASS =  192.220; ZVAL   =    9.000    mass and valenz                      
   RCORE  =    2.600    outmost cutoff radius                                   
   RWIGS  =    2.690; RWIGS  =    1.423    wigner-seitz radius (au A)           
   ENMAX  =  210.864; ENMIN  =  158.148 eV                                      
   RCLOC  =    1.857    cutoff for local pot                                    
   LCOR   =        T    correct aug charges                                     
   LPAW   =        T    paw PP                                                  
   EAUG   =  318.962                                                            
   DEXC   =    0.000                                                            
   RMAX   =    2.667    core radius for proj-oper                               
   RAUG   =    1.300    factor for augmentation sphere                          
   RDEP   =    2.748    radius for radial grids                                 
   RDEPT  =    2.300    core radius for aug-charge                              
                                                                                
   Atomic configuration                                                         
   16 entries                                                                   
     n  l   j            E        occ.                                          
     1  0  0.50    -76100.0449   2.0000                                         
     2  0  0.50    -13308.1683   2.0000                                         
     2  1  1.50    -11558.0021   6.0000                                         
     3  0  0.50     -3110.7274   2.0000                                         
     3  1  1.50     -2599.2109   6.0000                                         
     3  2  2.50     -2037.1515  10.0000                                         
     4  0  0.50      -661.6001   2.0000                                         
     4  1  1.50      -493.8981   6.0000                                         
     4  2  2.50      -288.1909  10.0000                                         
     4  3  3.50       -59.5718  14.0000                                         
     5  0  0.50       -95.3879   2.0000                                         
     5  1  1.50       -52.2747   6.0000                                         
     5  2  2.50        -5.4180   8.0000                                         
     6  0  0.50        -5.5479   1.0000                                         
     6  1  1.50        -6.8029   0.0000                                         
     5  3  2.50        -1.3606   0.0000                                         
   Description                                                                  
     l       E           TYP  RCUT    TYP  RCUT                                 
     2     -5.4179967     23  2.600                                             
     2     -6.7785793     23  2.600                                             
     0     -5.5478636     23  2.600                                             
     0      2.2542272     23  2.600                                             
     1     -2.7211652     23  2.600                                             
     1     20.4087390     23  2.600                                             
  local pseudopotential read in
  partial core-charges read in
  partial kinetic energy density read in
  atomic valenz-charges read in
  non local Contribution for L=           2  read in
    real space projection operators read in
  non local Contribution for L=           2  read in
    real space projection operators read in
  non local Contribution for L=           0  read in
    real space projection operators read in
  non local Contribution for L=           0  read in
    real space projection operators read in
  non local Contribution for L=           1  read in
    real space projection operators read in
  non local Contribution for L=           1  read in
    real space projection operators read in
    PAW grid and wavefunctions read in
 
   number of l-projection  operators is LMAX  =           6
   number of lm-projection operators is LMMAX =          18
 
 POTCAR:    PAW_PBE Pt 04Feb2005                  
   VRHFIN =Pt: s1d9                                                             
   LEXCH  = PE                                                                  
   EATOM  =   729.1176 eV,   53.5886 Ry                                         
                                                                                
   TITEL  = PAW_PBE Pt 04Feb2005                                                
   LULTRA =        F    use ultrasoft PP ?                                      
   IUNSCR =        1    unscreen: 0-lin 1-nonlin 2-no                           
   RPACOR =    2.330    partial core radius                                     
   POMASS =  195.080; ZVAL   =   10.000    mass and valenz                      
   RCORE  =    2.600    outmost cutoff radius                                   
   RWIGS  =    2.750; RWIGS  =    1.455    wigner-seitz radius (au A)           
   ENMAX  =  230.283; ENMIN  =  172.712 eV                                      
   ICORE  =        3    local potential                                         
   LCOR   =        T    correct aug charges                                     
   LPAW   =        T    paw PP                                                  
   EAUG   =  358.966                                                            
   DEXC   =    0.000                                                            
   RMAX   =    2.658    core radius for proj-oper                               
   RAUG   =    1.300    factor for augmentation sphere                          
   RDEP   =    2.761    radius for radial grids                                 
   RDEPT  =    2.203    core radius for aug-charge                              
                                                                                
   Atomic configuration                                                         
   16 entries                                                                   
     n  l   j            E        occ.                                          
     1  0  0.50    -78401.1885   2.0000                                         
     2  0  0.50    -13770.7750   2.0000                                         
     2  1  1.50    -11931.0468   6.0000                                         
     3  0  0.50     -3234.7234   2.0000                                         
     3  1  1.50     -2699.2216   6.0000                                         
     3  2  2.50     -2119.5714  10.0000                                         
     4  0  0.50      -695.1528   2.0000                                         
     4  1  1.50      -519.6034   6.0000                                         
     4  2  2.50      -306.6786  10.0000                                         
     4  3  3.50       -70.1041  14.0000                                         
     5  0  0.50      -101.7747   2.0000                                         
     5  1  1.50       -55.9873   6.0000                                         
     5  2  2.50        -6.1423   9.0000                                         
     6  0  0.50        -5.6573   1.0000                                         
     6  1  1.50        -6.8029   0.0000                                         
     5  3  2.50        -1.3606   0.0000                                         
   Description                                                                  
     l       E           TYP  RCUT    TYP  RCUT                                 
     2     -6.1423404     23  2.500                                             
     2     -7.5029230     23  2.500                                             
     0     -5.6573207     23  2.500                                             
     0      0.7416693     23  2.500                                             
     1     -2.7211652     23  2.600                                             
     1     20.4087390     23  2.600                                             
     3     -1.3605826     23  2.500                                             
  local pseudopotential read in
  partial core-charges read in
  partial kinetic energy density read in
  atomic valenz-charges read in
  non local Contribution for L=           2  read in
    real space projection operators read in
  non local Contribution for L=           2  read in
    real space projection operators read in
  non local Contribution for L=           0  read in
    real space projection operators read in
  non local Contribution for L=           0  read in
    real space projection operators read in
  non local Contribution for L=           1  read in
    real space projection operators read in
  non local Contribution for L=           1  read in
    real space projection operators read in
    PAW grid and wavefunctions read in
 
   number of l-projection  operators is LMAX  =           6
   number of lm-projection operators is LMMAX =          18
 
 Optimization of the real space projectors (new method)

 maximal supplied QI-value         = 15.12
 optimisation between [QCUT,QGAM] = [  9.52, 19.05] = [ 25.40,101.61] Ry 
 Optimized for a Real-space Cutoff    1.57 Angstroem

   l    n(q)    QCUT    max X(q) W(low)/X(q) W(high)/X(q)  e(spline) 
   2      8     9.524    60.898    0.38E-03    0.43E-04    0.84E-07
   2      8     9.524    58.894    0.38E-03    0.47E-04    0.88E-07
   0      9     9.524   109.617    0.60E-04    0.64E-04    0.80E-07
   0      9     9.524    75.026    0.59E-04    0.62E-04    0.78E-07
   1      8     9.524    16.344    0.99E-04    0.18E-03    0.87E-07
   1      8     9.524    10.160    0.78E-04    0.15E-03    0.74E-07
 Optimization of the real space projectors (new method)

 maximal supplied QI-value         = 25.13
 optimisation between [QCUT,QGAM] = [  9.55, 19.10] = [ 25.54,102.17] Ry 
 Optimized for a Real-space Cutoff    1.39 Angstroem

   l    n(q)    QCUT    max X(q) W(low)/X(q) W(high)/X(q)  e(spline) 
   0      8     9.551   115.676    0.39E-03    0.54E-03    0.29E-06
   0      8     9.551    87.132    0.39E-03    0.54E-03    0.28E-06
   1      7     9.551     4.429    0.35E-03    0.51E-04    0.29E-06
   1      7     9.551     2.733    0.22E-03    0.42E-04    0.31E-06
 Optimization of the real space projectors (new method)

 maximal supplied QI-value         = 34.20
 optimisation between [QCUT,QGAM] = [  9.58, 19.15] = [ 25.68,102.74] Ry 
 Optimized for a Real-space Cutoff    1.31 Angstroem

   l    n(q)    QCUT    max X(q) W(low)/X(q) W(high)/X(q)  e(spline) 
   0      7     9.577    19.460    0.33E-03    0.12E-03    0.35E-06
   0      7     9.577    12.209    0.33E-03    0.11E-03    0.33E-06
   1      7     9.577     4.655    0.39E-03    0.14E-02    0.33E-06
 Optimization of the real space projectors (new method)

 maximal supplied QI-value         = 14.36
 optimisation between [QCUT,QGAM] = [  9.48, 19.10] = [ 25.16,102.17] Ry 
 Optimized for a Real-space Cutoff    1.57 Angstroem

   l    n(q)    QCUT    max X(q) W(low)/X(q) W(high)/X(q)  e(spline) 
   2      8     9.479   134.116    0.18E-03    0.75E-03    0.26E-06
   2      8     9.479   130.192    0.18E-03    0.75E-03    0.27E-06
   0      9     9.479    60.310    0.39E-03    0.24E-03    0.63E-07
   0      9     9.479    39.218    0.36E-03    0.22E-03    0.59E-07
   1      8     9.479    18.439    0.20E-03    0.15E-03    0.16E-06
   1      8     9.479    12.760    0.16E-03    0.11E-03    0.13E-06
 Optimization of the real space projectors (new method)

 maximal supplied QI-value         = 14.36
 optimisation between [QCUT,QGAM] = [  9.48, 19.10] = [ 25.16,102.17] Ry 
 Optimized for a Real-space Cutoff    1.57 Angstroem

   l    n(q)    QCUT    max X(q) W(low)/X(q) W(high)/X(q)  e(spline) 
   2      8     9.479    66.195    0.35E-03    0.53E-04    0.87E-07
   2      8     9.479    64.643    0.35E-03    0.57E-04    0.91E-07
   0      9     9.479    95.520    0.50E-04    0.62E-04    0.81E-07
   0      9     9.479    63.403    0.49E-04    0.60E-04    0.78E-07
   1      8     9.479    19.961    0.10E-03    0.87E-04    0.11E-06
   1      8     9.479    13.289    0.88E-04    0.71E-04    0.97E-07
  PAW_PBE Au 04Oct2007                  :
 energy of atom  1       EATOM= -926.0867
 kinetic energy error for atom=    0.0152 (will be added to EATOM!!)
  PAW_PBE C 08Apr2002                   :
 energy of atom  2       EATOM= -147.1560
 kinetic energy error for atom=    0.0854 (will be added to EATOM!!)
  PAW_PBE H 15Jun2001                   :
 energy of atom  3       EATOM=  -12.4884
 kinetic energy error for atom=    0.0203 (will be added to EATOM!!)
  PAW_PBE Ir 06Sep2000                  :
 energy of atom  4       EATOM= -560.1833
 kinetic energy error for atom=    0.0056 (will be added to EATOM!!)
  PAW_PBE Pt 04Feb2005                  :
 energy of atom  5       EATOM= -729.1176
 kinetic energy error for atom=    0.0144 (will be added to EATOM!!)
 
 
 POSCAR: Au  C  H Ir Pt                          
  positions in cartesian coordinates
  No initial velocities read in
 exchange correlation table for  LEXCH =        8
   RHO(1)=    0.500       N(1)  =     2000
   RHO(2)=  100.500       N(2)  =     4000
 


--------------------------------------------------------------------------------------------------------


 ion  position               nearest neighbor table
   1  0.333  0.338  0.539-  13 2.78  21 2.78  20 2.78  20 2.78  21 2.78  13 2.78  15 2.79  16 2.80
                            17 2.81  10 2.82   9 2.83   8 2.83
   2  0.990  0.025  0.736-   4 1.10   5 1.10   6 1.10   3 1.10
   3  0.997  0.168  0.712-   2 1.10
   4  0.795  0.135  0.754-   2 1.10
   5  0.000  0.846  0.719-   2 1.10
   6  0.168  0.953  0.758-   2 1.10
   7  0.500  0.000  0.390-  18 2.78  18 2.78  19 2.78  19 2.78  12 2.78  12 2.78  14 2.82  17 2.82
                            16 2.83
   8  0.500  0.506  0.615-  10 2.78   9 2.78  11 2.78  11 2.78   9 2.78  10 2.78  20 2.82  13 2.83
                             1 2.83
   9  0.000  0.506  0.615-  10 2.78  11 2.78   8 2.78   8 2.78  11 2.78  10 2.78  21 2.82   1 2.83
                            13 2.83
  10  0.500  0.007  0.615-   9 2.78   8 2.78  11 2.78  11 2.78   8 2.78   9 2.78   1 2.82  21 2.83
                            20 2.83
  11  0.000  0.007  0.615-   9 2.78   8 2.78  10 2.78  10 2.78   8 2.78   9 2.78  13 2.82  20 2.82
                            21 2.83
  12  0.000  0.000  0.390-  19 2.78  18 2.78  19 2.78  18 2.78   7 2.78   7 2.78  15 2.82  16 2.82
                            17 2.83
  13  0.833  0.338  0.539-  21 2.78  20 2.78   1 2.78   1 2.78  20 2.78  21 2.78  14 2.79  17 2.80
                            16 2.81  11 2.82   8 2.83   9 2.83
  14  0.667  0.669  0.465-  17 2.78  16 2.78  15 2.78  15 2.78  16 2.78  17 2.78  13 2.79  20 2.80
                            21 2.81   7 2.82  19 2.82  18 2.83
  15  0.167  0.669  0.465-  16 2.78  17 2.78  14 2.78  14 2.78  17 2.78  16 2.78   1 2.79  21 2.80
                            20 2.81  12 2.82  18 2.82  19 2.83
  16  0.667  0.169  0.465-  15 2.78  17 2.78  14 2.78  14 2.78  17 2.78  15 2.78  21 2.79   1 2.80
                            13 2.81  18 2.82  12 2.82   7 2.83
  17  0.167  0.169  0.465-  15 2.78  16 2.78  14 2.78  14 2.78  16 2.78  15 2.78  20 2.79  13 2.80
                             1 2.81  19 2.82   7 2.82  12 2.83
  18  0.500  0.500  0.390-   7 2.78   7 2.78  12 2.78  12 2.78  19 2.78  19 2.78  16 2.82  15 2.82
                            14 2.83
  19  0.000  0.500  0.390-  12 2.78   7 2.78  12 2.78   7 2.78  18 2.78  18 2.78  17 2.82  14 2.82
                            15 2.83
  20  0.333  0.838  0.539-  21 2.78  13 2.78   1 2.78   1 2.78  13 2.78  21 2.78  17 2.79  14 2.80
                            15 2.81   8 2.82  11 2.82  10 2.83
  21  0.834  0.838  0.539-  20 2.78  13 2.78   1 2.78   1 2.78  13 2.78  20 2.78  16 2.79  15 2.80
                            14 2.81   9 2.82  10 2.83  11 2.83
 
  LATTYP: Found a hexagonal cell.
 ALAT       =     5.5578593001
 C/A-ratio  =     5.5429542221
  
  Lattice vectors:
  
 A1 = (   2.7789296501,  -4.8132473446,   0.0000000000)
 A2 = (  -5.5578593001,   0.0000000000,   0.0000000000)
 A3 = (   0.0000000000,   0.0000000000, -30.8069596737)


Analysis of symmetry for initial positions (statically):
=====================================================================
 Subroutine PRICEL returns:
 Original cell was already a primitive cell.
 

 Routine SETGRP: Setting up the symmetry group for a 
 hexagonal supercell.


 Subroutine GETGRP returns: Found  1 space group operations
 (whereof  1 operations were pure point group operations)
 out of a pool of 24 trial point group operations.


The static configuration has the point symmetry C_1 .


Analysis of symmetry for dynamics (positions and initial velocities):
=====================================================================
 Subroutine PRICEL returns:
 Original cell was already a primitive cell.
 

 Routine SETGRP: Setting up the symmetry group for a 
 hexagonal supercell.


 Subroutine GETGRP returns: Found  1 space group operations
 (whereof  1 operations were pure point group operations)
 out of a pool of 24 trial point group operations.


The dynamic configuration has the point symmetry C_1 .


Analysis of constrained symmetry for selective dynamics:
=====================================================================
 Subroutine PRICEL returns:
 Original cell was already a primitive cell.
 

 Routine SETGRP: Setting up the symmetry group for a 
 hexagonal supercell.


 Subroutine GETGRP returns: Found  1 space group operations
 (whereof  1 operations were pure point group operations)
 out of a pool of 24 trial point group operations.


The constrained configuration has the point symmetry C_1 .


 Subroutine INISYM returns: Found  1 space group operations
 (whereof  1 operations are pure point group operations),
 and found     1 'primitive' translations

 
 
 KPOINTS: 0.6.Ir1.Au9                             

Automatic generation of k-mesh.
Space group operators:
 irot       det(A)        alpha          n_x          n_y          n_z        tau_x        tau_y        tau_z
    1     1.000000     0.000001     1.000000     0.000000     0.000000     0.000000     0.000000     0.000000
 
 Subroutine IBZKPT returns following result:
 ===========================================
 
 Found     96 irreducible k-points:
 
 Following reciprocal coordinates:
            Coordinates               Weight
  0.062500  0.062500  0.000000     16.000000
  0.000000  0.062500  0.000000     16.000000
 -0.062500  0.000000  0.000000     16.000000
  0.187500  0.062500  0.000000     16.000000
  0.125000  0.187500  0.000000     16.000000
 -0.062500  0.125000  0.000000     16.000000
  0.125000 -0.062500  0.000000     16.000000
 -0.062500 -0.187500  0.000000     16.000000
 -0.187500 -0.125000  0.000000     16.000000
  0.312500  0.062500  0.000000     16.000000
  0.250000  0.312500  0.000000     16.000000
 -0.062500  0.250000  0.000000     16.000000
  0.250000 -0.062500  0.000000     16.000000
 -0.062500 -0.312500  0.000000     16.000000
 -0.312500 -0.250000  0.000000     16.000000
  0.437500  0.062500  0.000000     16.000000
  0.375000  0.437500  0.000000     16.000000
 -0.062500  0.375000  0.000000     16.000000
  0.375000 -0.062500  0.000000     16.000000
 -0.062500 -0.437500  0.000000     16.000000
 -0.437500 -0.375000  0.000000     16.000000
 -0.437500  0.062500  0.000000     16.000000
  0.500000 -0.437500  0.000000     16.000000
 -0.062500  0.500000  0.000000     16.000000
  0.500000 -0.062500  0.000000     16.000000
 -0.062500  0.437500  0.000000     16.000000
  0.437500  0.500000  0.000000     16.000000
 -0.312500  0.062500  0.000000     16.000000
 -0.375000 -0.312500  0.000000     16.000000
 -0.062500 -0.375000  0.000000     16.000000
 -0.375000 -0.062500  0.000000     16.000000
 -0.062500  0.312500  0.000000     16.000000
  0.312500  0.375000  0.000000     16.000000
 -0.187500  0.062500  0.000000     16.000000
 -0.250000 -0.187500  0.000000     16.000000
 -0.062500 -0.250000  0.000000     16.000000
 -0.250000 -0.062500  0.000000     16.000000
 -0.062500  0.187500  0.000000     16.000000
  0.187500  0.250000  0.000000     16.000000
 -0.062500  0.062500  0.000000     16.000000
 -0.125000 -0.062500  0.000000     16.000000
 -0.062500 -0.125000  0.000000     16.000000
  0.187500  0.187500  0.000000     16.000000
  0.000000  0.187500  0.000000     16.000000
 -0.187500  0.000000  0.000000     16.000000
  0.312500  0.187500  0.000000     16.000000
  0.125000  0.312500  0.000000     16.000000
 -0.187500  0.125000  0.000000     16.000000
  0.125000 -0.187500  0.000000     16.000000
 -0.187500 -0.312500  0.000000     16.000000
 -0.312500 -0.125000  0.000000     16.000000
  0.437500  0.187500  0.000000     16.000000
  0.250000  0.437500  0.000000     16.000000
 -0.187500  0.250000  0.000000     16.000000
  0.250000 -0.187500  0.000000     16.000000
 -0.187500 -0.437500  0.000000     16.000000
 -0.437500 -0.250000  0.000000     16.000000
 -0.437500  0.187500  0.000000     16.000000
  0.375000 -0.437500  0.000000     16.000000
 -0.187500  0.375000  0.000000     16.000000
  0.375000 -0.187500  0.000000     16.000000
 -0.187500  0.437500  0.000000     16.000000
  0.437500 -0.375000  0.000000     16.000000
 -0.312500  0.187500  0.000000     16.000000
  0.500000 -0.312500  0.000000     16.000000
 -0.187500  0.500000  0.000000     16.000000
  0.500000 -0.187500  0.000000     16.000000
 -0.187500  0.312500  0.000000     16.000000
  0.312500  0.500000  0.000000     16.000000
 -0.187500  0.187500  0.000000     16.000000
 -0.375000 -0.187500  0.000000     16.000000
 -0.187500 -0.375000  0.000000     16.000000
  0.312500  0.312500  0.000000     16.000000
  0.000000  0.312500  0.000000     16.000000
 -0.312500  0.000000  0.000000     16.000000
  0.437500  0.312500  0.000000     16.000000
  0.125000  0.437500  0.000000     16.000000
 -0.312500  0.125000  0.000000     16.000000
  0.125000 -0.312500  0.000000     16.000000
 -0.312500 -0.437500  0.000000     16.000000
 -0.437500 -0.125000  0.000000     16.000000
 -0.437500  0.312500  0.000000     16.000000
  0.250000 -0.437500  0.000000     16.000000
 -0.312500  0.250000  0.000000     16.000000
  0.250000 -0.312500  0.000000     16.000000
 -0.312500  0.437500  0.000000     16.000000
  0.437500 -0.250000  0.000000     16.000000
 -0.312500  0.312500  0.000000     16.000000
  0.375000 -0.312500  0.000000     16.000000
 -0.312500  0.375000  0.000000     16.000000
  0.437500  0.437500  0.000000     16.000000
  0.000000  0.437500  0.000000     16.000000
 -0.437500  0.000000  0.000000     16.000000
 -0.437500  0.437500  0.000000     16.000000
  0.125000 -0.437500  0.000000     16.000000
 -0.437500  0.125000  0.000000     16.000000
 
 Following cartesian coordinates:
            Coordinates               Weight
  0.011245  0.006492  0.000000     16.000000
  0.000000  0.012985  0.000000     16.000000
 -0.011245  0.006492  0.000000     16.000000
  0.033736 -0.006492  0.000000     16.000000
  0.022491  0.025970  0.000000     16.000000
 -0.011245  0.032462  0.000000     16.000000
  0.022491 -0.025970  0.000000     16.000000
 -0.011245 -0.032462  0.000000     16.000000
 -0.033736 -0.006492  0.000000     16.000000
  0.056227 -0.019477  0.000000     16.000000
  0.044981  0.038955  0.000000     16.000000
 -0.011245  0.058432  0.000000     16.000000
  0.044981 -0.038955  0.000000     16.000000
 -0.011245 -0.058432  0.000000     16.000000
 -0.056227 -0.019477  0.000000     16.000000
  0.078717 -0.032462  0.000000     16.000000
  0.067472  0.051940  0.000000     16.000000
 -0.011245  0.084402  0.000000     16.000000
  0.067472 -0.051940  0.000000     16.000000
 -0.011245 -0.084402  0.000000     16.000000
 -0.078717 -0.032462  0.000000     16.000000
 -0.078717  0.058432  0.000000     16.000000
  0.089963 -0.142835  0.000000     16.000000
 -0.011245  0.110372  0.000000     16.000000
  0.089963 -0.064925  0.000000     16.000000
 -0.011245  0.097387  0.000000     16.000000
  0.078717  0.058432  0.000000     16.000000
 -0.056227  0.045447  0.000000     16.000000
 -0.067472 -0.025970  0.000000     16.000000
 -0.011245 -0.071417  0.000000     16.000000
 -0.067472  0.025970  0.000000     16.000000
 -0.011245  0.071417  0.000000     16.000000
  0.056227  0.045447  0.000000     16.000000
 -0.033736  0.032462  0.000000     16.000000
 -0.044981 -0.012985  0.000000     16.000000
 -0.011245 -0.045447  0.000000     16.000000
 -0.044981  0.012985  0.000000     16.000000
 -0.011245  0.045447  0.000000     16.000000
  0.033736  0.032462  0.000000     16.000000
 -0.011245  0.019477  0.000000     16.000000
 -0.022491  0.000000  0.000000     16.000000
 -0.011245 -0.019477  0.000000     16.000000
  0.033736  0.019477  0.000000     16.000000
  0.000000  0.038955  0.000000     16.000000
 -0.033736  0.019477  0.000000     16.000000
  0.056227  0.006492  0.000000     16.000000
  0.022491  0.051940  0.000000     16.000000
 -0.033736  0.045447  0.000000     16.000000
  0.022491 -0.051940  0.000000     16.000000
 -0.033736 -0.045447  0.000000     16.000000
 -0.056227  0.006492  0.000000     16.000000
  0.078717 -0.006492  0.000000     16.000000
  0.044981  0.064925  0.000000     16.000000
 -0.033736  0.071417  0.000000     16.000000
  0.044981 -0.064925  0.000000     16.000000
 -0.033736 -0.071417  0.000000     16.000000
 -0.078717 -0.006492  0.000000     16.000000
 -0.078717  0.084402  0.000000     16.000000
  0.067472 -0.129850  0.000000     16.000000
 -0.033736  0.097387  0.000000     16.000000
  0.067472 -0.077910  0.000000     16.000000
 -0.033736  0.110372  0.000000     16.000000
  0.078717 -0.123357  0.000000     16.000000
 -0.056227  0.071417  0.000000     16.000000
  0.089963 -0.116865  0.000000     16.000000
 -0.033736  0.123357  0.000000     16.000000
  0.089963 -0.090895  0.000000     16.000000
 -0.033736  0.084402  0.000000     16.000000
  0.056227  0.071417  0.000000     16.000000
 -0.033736  0.058432  0.000000     16.000000
 -0.067472  0.000000  0.000000     16.000000
 -0.033736 -0.058432  0.000000     16.000000
  0.056227  0.032462  0.000000     16.000000
  0.000000  0.064925  0.000000     16.000000
 -0.056227  0.032462  0.000000     16.000000
  0.078717  0.019477  0.000000     16.000000
  0.022491  0.077910  0.000000     16.000000
 -0.056227  0.058432  0.000000     16.000000
  0.022491 -0.077910  0.000000     16.000000
 -0.056227 -0.058432  0.000000     16.000000
 -0.078717  0.019477  0.000000     16.000000
 -0.078717  0.110372  0.000000     16.000000
  0.044981 -0.116865  0.000000     16.000000
 -0.056227  0.084402  0.000000     16.000000
  0.044981 -0.090895  0.000000     16.000000
 -0.056227  0.123357  0.000000     16.000000
  0.078717 -0.097387  0.000000     16.000000
 -0.056227  0.097387  0.000000     16.000000
  0.067472 -0.103880  0.000000     16.000000
 -0.056227  0.110372  0.000000     16.000000
  0.078717  0.045447  0.000000     16.000000
  0.000000  0.090895  0.000000     16.000000
 -0.078717  0.045447  0.000000     16.000000
 -0.078717  0.136342  0.000000     16.000000
  0.022491 -0.103880  0.000000     16.000000
 -0.078717  0.071417  0.000000     16.000000
 


--------------------------------------------------------------------------------------------------------




 Dimension of arrays:
   k-points           NKPTS =     96   k-points in BZ     NKDIM =     96   number of bands    NBANDS=    100
   number of dos      NEDOS =    301   number of ions     NIONS =     21
   non local maximal  LDIM  =      6   non local SUM 2l+1 LMDIM =     18
   total plane-waves  NPLWV = 112896
   max r-space proj   IRMAX =   2252   max aug-charges    IRDMAX=  10104
   dimension x,y,z NGX =    28 NGY =   28 NGZ =  144
   dimension x,y,z NGXF=    56 NGYF=   56 NGZF=  288
   support grid    NGXF=    56 NGYF=   56 NGZF=  288
   ions per type =               1   1   4   1  14
   NGX,Y,Z   is equivalent  to a cutoff of   8.38,  8.38,  7.77 a.u.
   NGXF,Y,Z  is equivalent  to a cutoff of  16.75, 16.75, 15.54 a.u.

 SYSTEM =  0.6.Ir1.Au9                             
 POSCAR =  Au  C  H Ir Pt                          

 Startparameter for this run:
   NWRITE =      2    write-flag & timer
   PREC   = normal    normal or accurate (medium, high low for compatibility)
   ISTART =      0    job   : 0-new  1-cont  2-samecut
   ICHARG =      2    charge: 1-file 2-atom 10-const
   ISPIN  =      1    spin polarized calculation?
   LNONCOLLINEAR =      F non collinear calculations
   LSORBIT =      F    spin-orbit coupling
   INIWAV =      1    electr: 0-lowe 1-rand  2-diag
   LASPH  =      F    aspherical Exc in radial PAW
   METAGGA=      F    non-selfconsistent MetaGGA calc.

 Electronic Relaxation 1
   ENCUT  =  350.0 eV  25.72 Ry    5.07 a.u.   8.48  8.48 46.99*2*pi/ulx,y,z
   ENINI  =  350.0     initial cutoff
   ENAUG  =  644.9 eV  augmentation charge cutoff
   NELM   =   1000;   NELMIN=  5; NELMDL= -5     # of ELM steps 
   EDIFF  = 0.1E-04   stopping-criterion for ELM
   LREAL  =      T    real-space projection
   NLSPLINE    = F    spline interpolate recip. space projectors
   LCOMPAT=      F    compatible to vasp.4.4
   GGA_COMPAT  = T    GGA compatible to vasp.4.4-vasp.4.6
   LMAXPAW     = -100 max onsite density
   LMAXMIX     =    2 max onsite mixed and CHGCAR
   VOSKOWN=      0    Vosko Wilk Nusair interpolation
   ROPT   =   -0.00050  -0.00050  -0.00050  -0.00050
   ROPT   =   -0.00050
 Ionic relaxation
   EDIFFG = 0.1E-03   stopping-criterion for IOM
   NSW    =      0    number of steps for IOM
   NBLOCK =      1;   KBLOCK =      1    inner block; outer block 
   IBRION =     -1    ionic relax: 0-MD 1-quasi-New 2-CG
   NFREE  =      0    steps in history (QN), initial steepest desc. (CG)
   ISIF   =      2    stress and relaxation
   IWAVPR =     10    prediction:  0-non 1-charg 2-wave 3-comb
   ISYM   =      2    0-nonsym 1-usesym 2-fastsym
   LCORR  =      T    Harris-Foulkes like correction to forces

   POTIM  = 0.5000    time-step for ionic-motion
   TEIN   =    0.0    initial temperature
   TEBEG  =    0.0;   TEEND  =   0.0 temperature during run
   SMASS  =  -3.00    Nose mass-parameter (am)
   estimated Nose-frequenzy (Omega)   =  0.10E-29 period in steps =****** mass=  -0.706E-27a.u.
   SCALEE = 1.0000    scale energy and forces
   NPACO  =    256;   APACO  = 16.0  distance and # of slots for P.C.
   PSTRESS=    0.0 pullay stress

  Mass of Ions in am
   POMASS = 196.97 12.01  1.00192.22195.08
  Ionic Valenz
   ZVAL   =  11.00  4.00  1.00  9.00 10.00
  Atomic Wigner-Seitz radii
   RWIGS  =  -1.00 -1.00 -1.00 -1.00 -1.00
  virtual crystal weights 
   VCA    =   1.00  1.00  1.00  1.00  1.00
   NELECT =     168.0000    total number of electrons
   NUPDOWN=      -1.0000    fix difference up-down

 DOS related values:
   EMIN   =  10.00;   EMAX   =-10.00  energy-range for DOS
   EFERMI =   0.00
   ISMEAR =     1;   SIGMA  =   0.20  broadening in eV -4-tet -1-fermi 0-gaus

 Electronic relaxation 2 (details)
   IALGO  =     38    algorithm
   LDIAG  =      T    sub-space diagonalisation (order eigenvalues)
   LSUBROT=      F    optimize rotation matrix (better conditioning)
   TURBO    =      0    0=normal 1=particle mesh
   IRESTART =      0    0=no restart 2=restart with 2 vectors
   NREBOOT  =      0    no. of reboots
   NMIN     =      0    reboot dimension
   EREF     =   0.00    reference energy to select bands
   IMIX   =      4    mixing-type and parameters
     AMIX     =   0.40;   BMIX     =  1.00
     AMIX_MAG =   1.60;   BMIX_MAG =  1.00
     AMIN     =   0.10
     WC   =   100.;   INIMIX=   1;  MIXPRE=   1;  MAXMIX= -45

 Intra band minimization:
   WEIMIN = 0.0000     energy-eigenvalue tresh-hold
   EBREAK =  0.25E-07  absolut break condition
   DEPER  =   0.30     relativ break condition  

   TIME   =   0.40     timestep for ELM

  volume/ion in A,a.u.               =      39.24       264.83
  Fermi-wavevector in a.u.,A,eV,Ry     =   0.963488  1.820729 12.630418  0.928310
  Thomas-Fermi vector in A             =   2.093038
 
 Write flags
   LWAVE        =      F    write WAVECAR
   LDOWNSAMPLE  =      F    k-point downsampling of WAVECAR
   LCHARG       =      F    write CHGCAR
   LVTOT        =      F    write LOCPOT, total local potential
   LVHAR        =      F    write LOCPOT, Hartree potential only
   LELF         =      F    write electronic localiz. function (ELF)
   LORBIT       =      0    0 simple, 1 ext, 2 COOP (PROOUT), +10 PAW based schemes


 Dipole corrections
   LMONO  =      F    monopole corrections only (constant potential shift)
   LDIPOL =      F    correct potential (dipole corrections)
   IDIPOL =      3    1-x, 2-y, 3-z, 4-all directions 
   EPSILON=  1.0000000 bulk dielectric constant

 Exchange correlation treatment:
   GGA     =    --    GGA type
   LEXCH   =     8    internal setting for exchange type
   VOSKOWN=      0    Vosko Wilk Nusair interpolation
   LHFCALC =     F    Hartree Fock is set to
   LHFONE  =     F    Hartree Fock one center treatment
   AEXX    =    0.0000 exact exchange contribution

 Linear response parameters
   LEPSILON=     F    determine dielectric tensor
   LRPA    =     F    only Hartree local field effects (RPA)
   LNABLA  =     F    use nabla operator in PAW spheres
   LVEL    =     F    velocity operator in full k-point grid
   LINTERFAST=   F  fast interpolation
   KINTER  =     0    interpolate to denser k-point grid
   CSHIFT  =0.1000    complex shift for real part using Kramers Kronig
   OMEGAMAX=  -1.0    maximum frequency
   DEG_THRESHOLD= 0.2000000E-02 threshold for treating states as degnerate
   RTIME   =   -0.100 relaxation time in fs
  (WPLASMAI=    0.000 imaginary part of plasma frequency in eV, 0.658/RTIME)
   DFIELD  = 0.0000000 0.0000000 0.0000000 field for delta impulse in time
 
 Orbital magnetization related:
   ORBITALMAG=     F  switch on orbital magnetization
   LCHIMAG   =     F  perturbation theory with respect to B field
   DQ        =  0.001000  dq finite difference perturbation B field
   LLRAUG    =     F  two centre corrections for induced B field



--------------------------------------------------------------------------------------------------------


 Static calculation
 charge density and potential will be updated during run
 non-spin polarized calculation
 Variant of blocked Davidson
 Davidson routine will perform the subspace rotation
 perform sub-space diagonalisation
    after iterative eigenvector-optimisation
 modified Broyden-mixing scheme, WC =      100.0
 initial mixing is a Kerker type mixing with AMIX =  0.4000 and BMIX =      1.0000
 Hartree-type preconditioning will be used
 using additional bands           16
 real space projection scheme for non local part
 use partial core corrections
 calculate Harris-corrections to forces 
   (improved forces if not selfconsistent)
 use gradient corrections 
 use of overlap-Matrix (Vanderbilt PP)
 Methfessel and Paxton  Order N= 1 SIGMA  =   0.20


--------------------------------------------------------------------------------------------------------


  energy-cutoff  :      350.00
  volume of cell :      824.13
      direct lattice vectors                 reciprocal lattice vectors
     5.557859300  0.000000000  0.000000000     0.179925390 -0.103879972  0.000000000
     2.778929650  4.813247345  0.000000000     0.000000000  0.207759944  0.000000000
     0.000000000  0.000000000 30.806959674     0.000000000  0.000000000  0.032460198

  length of vectors
     5.557859300  5.557859300 30.806959674     0.207759944  0.207759944  0.032460198


 
 k-points in units of 2pi/SCALE and weight: 0.6.Ir1.Au9                             
   0.01124534  0.00649250  0.00000000       0.010
   0.00000000  0.01298500  0.00000000       0.010
  -0.01124534  0.00649250  0.00000000       0.010
   0.03373601 -0.00649250  0.00000000       0.010
   0.02249067  0.02596999  0.00000000       0.010
  -0.01124534  0.03246249  0.00000000       0.010
   0.02249067 -0.02596999  0.00000000       0.010
  -0.01124534 -0.03246249  0.00000000       0.010
  -0.03373601 -0.00649250  0.00000000       0.010
   0.05622668 -0.01947749  0.00000000       0.010
   0.04498135  0.03895499  0.00000000       0.010
  -0.01124534  0.05843248  0.00000000       0.010
   0.04498135 -0.03895499  0.00000000       0.010
  -0.01124534 -0.05843248  0.00000000       0.010
  -0.05622668 -0.01947749  0.00000000       0.010
   0.07871736 -0.03246249  0.00000000       0.010
   0.06747202  0.05193999  0.00000000       0.010
  -0.01124534  0.08440248  0.00000000       0.010
   0.06747202 -0.05193999  0.00000000       0.010
  -0.01124534 -0.08440248  0.00000000       0.010
  -0.07871736 -0.03246249  0.00000000       0.010
  -0.07871736  0.05843248  0.00000000       0.010
   0.08996269 -0.14283496  0.00000000       0.010
  -0.01124534  0.11037247  0.00000000       0.010
   0.08996269 -0.06492498  0.00000000       0.010
  -0.01124534  0.09738747  0.00000000       0.010
   0.07871736  0.05843248  0.00000000       0.010
  -0.05622668  0.04544749  0.00000000       0.010
  -0.06747202 -0.02596999  0.00000000       0.010
  -0.01124534 -0.07141748  0.00000000       0.010
  -0.06747202  0.02596999  0.00000000       0.010
  -0.01124534  0.07141748  0.00000000       0.010
   0.05622668  0.04544749  0.00000000       0.010
  -0.03373601  0.03246249  0.00000000       0.010
  -0.04498135 -0.01298500  0.00000000       0.010
  -0.01124534 -0.04544749  0.00000000       0.010
  -0.04498135  0.01298500  0.00000000       0.010
  -0.01124534  0.04544749  0.00000000       0.010
   0.03373601  0.03246249  0.00000000       0.010
  -0.01124534  0.01947749  0.00000000       0.010
  -0.02249067  0.00000000  0.00000000       0.010
  -0.01124534 -0.01947749  0.00000000       0.010
   0.03373601  0.01947749  0.00000000       0.010
   0.00000000  0.03895499  0.00000000       0.010
  -0.03373601  0.01947749  0.00000000       0.010
   0.05622668  0.00649250  0.00000000       0.010
   0.02249067  0.05193999  0.00000000       0.010
  -0.03373601  0.04544749  0.00000000       0.010
   0.02249067 -0.05193999  0.00000000       0.010
  -0.03373601 -0.04544749  0.00000000       0.010
  -0.05622668  0.00649250  0.00000000       0.010
   0.07871736 -0.00649250  0.00000000       0.010
   0.04498135  0.06492498  0.00000000       0.010
  -0.03373601  0.07141748  0.00000000       0.010
   0.04498135 -0.06492498  0.00000000       0.010
  -0.03373601 -0.07141748  0.00000000       0.010
  -0.07871736 -0.00649250  0.00000000       0.010
  -0.07871736  0.08440248  0.00000000       0.010
   0.06747202 -0.12984997  0.00000000       0.010
  -0.03373601  0.09738747  0.00000000       0.010
   0.06747202 -0.07790998  0.00000000       0.010
  -0.03373601  0.11037247  0.00000000       0.010
   0.07871736 -0.12335747  0.00000000       0.010
  -0.05622668  0.07141748  0.00000000       0.010
   0.08996269 -0.11686497  0.00000000       0.010
  -0.03373601  0.12335747  0.00000000       0.010
   0.08996269 -0.09089498  0.00000000       0.010
  -0.03373601  0.08440248  0.00000000       0.010
   0.05622668  0.07141748  0.00000000       0.010
  -0.03373601  0.05843248  0.00000000       0.010
  -0.06747202  0.00000000  0.00000000       0.010
  -0.03373601 -0.05843248  0.00000000       0.010
   0.05622668  0.03246249  0.00000000       0.010
   0.00000000  0.06492498  0.00000000       0.010
  -0.05622668  0.03246249  0.00000000       0.010
   0.07871736  0.01947749  0.00000000       0.010
   0.02249067  0.07790998  0.00000000       0.010
  -0.05622668  0.05843248  0.00000000       0.010
   0.02249067 -0.07790998  0.00000000       0.010
  -0.05622668 -0.05843248  0.00000000       0.010
  -0.07871736  0.01947749  0.00000000       0.010
  -0.07871736  0.11037247  0.00000000       0.010
   0.04498135 -0.11686497  0.00000000       0.010
  -0.05622668  0.08440248  0.00000000       0.010
   0.04498135 -0.09089498  0.00000000       0.010
  -0.05622668  0.12335747  0.00000000       0.010
   0.07871736 -0.09738747  0.00000000       0.010
  -0.05622668  0.09738747  0.00000000       0.010
   0.06747202 -0.10387997  0.00000000       0.010
  -0.05622668  0.11037247  0.00000000       0.010
   0.07871736  0.04544749  0.00000000       0.010
   0.00000000  0.09089498  0.00000000       0.010
  -0.07871736  0.04544749  0.00000000       0.010
  -0.07871736  0.13634246  0.00000000       0.010
   0.02249067 -0.10387997  0.00000000       0.010
  -0.07871736  0.07141748  0.00000000       0.010
 
 k-points in reciprocal lattice and weights: 0.6.Ir1.Au9                             
   0.06250000  0.06250000  0.00000000       0.010
   0.00000000  0.06250000  0.00000000       0.010
  -0.06250000  0.00000000  0.00000000       0.010
   0.18750000  0.06250000  0.00000000       0.010
   0.12500000  0.18750000  0.00000000       0.010
  -0.06250000  0.12500000  0.00000000       0.010
   0.12500000 -0.06250000  0.00000000       0.010
  -0.06250000 -0.18750000  0.00000000       0.010
  -0.18750000 -0.12500000  0.00000000       0.010
   0.31250000  0.06250000  0.00000000       0.010
   0.25000000  0.31250000  0.00000000       0.010
  -0.06250000  0.25000000  0.00000000       0.010
   0.25000000 -0.06250000  0.00000000       0.010
  -0.06250000 -0.31250000  0.00000000       0.010
  -0.31250000 -0.25000000  0.00000000       0.010
   0.43750000  0.06250000  0.00000000       0.010
   0.37500000  0.43750000  0.00000000       0.010
  -0.06250000  0.37500000  0.00000000       0.010
   0.37500000 -0.06250000  0.00000000       0.010
  -0.06250000 -0.43750000  0.00000000       0.010
  -0.43750000 -0.37500000  0.00000000       0.010
  -0.43750000  0.06250000  0.00000000       0.010
   0.50000000 -0.43750000  0.00000000       0.010
  -0.06250000  0.50000000  0.00000000       0.010
   0.50000000 -0.06250000  0.00000000       0.010
  -0.06250000  0.43750000  0.00000000       0.010
   0.43750000  0.50000000  0.00000000       0.010
  -0.31250000  0.06250000  0.00000000       0.010
  -0.37500000 -0.31250000  0.00000000       0.010
  -0.06250000 -0.37500000  0.00000000       0.010
  -0.37500000 -0.06250000  0.00000000       0.010
  -0.06250000  0.31250000  0.00000000       0.010
   0.31250000  0.37500000  0.00000000       0.010
  -0.18750000  0.06250000  0.00000000       0.010
  -0.25000000 -0.18750000  0.00000000       0.010
  -0.06250000 -0.25000000  0.00000000       0.010
  -0.25000000 -0.06250000  0.00000000       0.010
  -0.06250000  0.18750000  0.00000000       0.010
   0.18750000  0.25000000  0.00000000       0.010
  -0.06250000  0.06250000  0.00000000       0.010
  -0.12500000 -0.06250000  0.00000000       0.010
  -0.06250000 -0.12500000  0.00000000       0.010
   0.18750000  0.18750000  0.00000000       0.010
   0.00000000  0.18750000  0.00000000       0.010
  -0.18750000  0.00000000  0.00000000       0.010
   0.31250000  0.18750000  0.00000000       0.010
   0.12500000  0.31250000  0.00000000       0.010
  -0.18750000  0.12500000  0.00000000       0.010
   0.12500000 -0.18750000  0.00000000       0.010
  -0.18750000 -0.31250000  0.00000000       0.010
  -0.31250000 -0.12500000  0.00000000       0.010
   0.43750000  0.18750000  0.00000000       0.010
   0.25000000  0.43750000  0.00000000       0.010
  -0.18750000  0.25000000  0.00000000       0.010
   0.25000000 -0.18750000  0.00000000       0.010
  -0.18750000 -0.43750000  0.00000000       0.010
  -0.43750000 -0.25000000  0.00000000       0.010
  -0.43750000  0.18750000  0.00000000       0.010
   0.37500000 -0.43750000  0.00000000       0.010
  -0.18750000  0.37500000  0.00000000       0.010
   0.37500000 -0.18750000  0.00000000       0.010
  -0.18750000  0.43750000  0.00000000       0.010
   0.43750000 -0.37500000  0.00000000       0.010
  -0.31250000  0.18750000  0.00000000       0.010
   0.50000000 -0.31250000  0.00000000       0.010
  -0.18750000  0.50000000  0.00000000       0.010
   0.50000000 -0.18750000  0.00000000       0.010
  -0.18750000  0.31250000  0.00000000       0.010
   0.31250000  0.50000000  0.00000000       0.010
  -0.18750000  0.18750000  0.00000000       0.010
  -0.37500000 -0.18750000  0.00000000       0.010
  -0.18750000 -0.37500000  0.00000000       0.010
   0.31250000  0.31250000  0.00000000       0.010
   0.00000000  0.31250000  0.00000000       0.010
  -0.31250000  0.00000000  0.00000000       0.010
   0.43750000  0.31250000  0.00000000       0.010
   0.12500000  0.43750000  0.00000000       0.010
  -0.31250000  0.12500000  0.00000000       0.010
   0.12500000 -0.31250000  0.00000000       0.010
  -0.31250000 -0.43750000  0.00000000       0.010
  -0.43750000 -0.12500000  0.00000000       0.010
  -0.43750000  0.31250000  0.00000000       0.010
   0.25000000 -0.43750000  0.00000000       0.010
  -0.31250000  0.25000000  0.00000000       0.010
   0.25000000 -0.31250000  0.00000000       0.010
  -0.31250000  0.43750000  0.00000000       0.010
   0.43750000 -0.25000000  0.00000000       0.010
  -0.31250000  0.31250000  0.00000000       0.010
   0.37500000 -0.31250000  0.00000000       0.010
  -0.31250000  0.37500000  0.00000000       0.010
   0.43750000  0.43750000  0.00000000       0.010
   0.00000000  0.43750000  0.00000000       0.010
  -0.43750000  0.00000000  0.00000000       0.010
  -0.43750000  0.43750000  0.00000000       0.010
   0.12500000 -0.43750000  0.00000000       0.010
  -0.43750000  0.12500000  0.00000000       0.010
 
 position of ions in fractional coordinates (direct lattice) 
   0.33337473  0.33781540  0.53940463
   0.98986533  0.02519169  0.73572992
   0.99747173  0.16761972  0.71161101
   0.79455777  0.13528302  0.75411282
   0.00013034  0.84564827  0.71894416
   0.16778675  0.95254753  0.75794723
   0.50000000  0.00000000  0.38952237
   0.50012916  0.50648614  0.61491355
   0.00047197  0.50638703  0.61493300
   0.50004708  0.00683978  0.61494346
   0.00018617  0.00688817  0.61478395
   0.00000000  0.00000000  0.38952237
   0.83345204  0.33783857  0.53938347
   0.66668751  0.66886601  0.46492125
   0.16684605  0.66856484  0.46487625
   0.66652771  0.16893469  0.46487204
   0.16667512  0.16891061  0.46488200
   0.50000000  0.50000000  0.38952237
   0.00000000  0.50000000  0.38952237
   0.33322164  0.83793208  0.53937300
   0.83366715  0.83793767  0.53935933
 
 position of ions in cartesian coordinates  (Angst):
   2.79161509  1.62598910 16.61741682
   5.57153815  0.12125383 22.66560193
   6.00961093  0.80679519 21.92257160
   4.79198227  0.65115064 23.23192323
   2.35072143  4.07031427 22.14848364
   3.57959773  4.58484687 23.35004987
   2.77892965  0.00000000 12.00000000
   4.18713688  2.43784308 18.94361701
   1.40983708  2.43736601 18.94421609
   2.79819859  0.03292156 18.94453837
   0.02017642  0.03315447 18.93962428
   0.00000000  0.00000000 12.00000000
   5.57103881  1.62610062 16.61676469
   5.56408696  3.21941754 14.32281011
   2.78520152  3.21796792 14.32142384
   4.17392483  0.81312443 14.32129406
   1.39574755  0.81300856 14.32160116
   4.16839448  2.40662367 12.00000000
   1.38946483  2.40662367 12.00000000
   4.18055329  4.03317435 16.61644236
   6.96197455  4.03320124 16.61602112
 


--------------------------------------------------------------------------------------------------------


 k-point  1 :   0.0625 0.0625 0.0000  plane waves:   12325
 k-point  2 :   0.0000 0.0625 0.0000  plane waves:   12325
 k-point  3 :  -0.0625 0.0000 0.0000  plane waves:   12325
 k-point  4 :   0.1875 0.0625 0.0000  plane waves:   12294
 k-point  5 :   0.1250 0.1875 0.0000  plane waves:   12294
 k-point  6 :  -0.0625 0.1250 0.0000  plane waves:   12294
 k-point  7 :   0.1250-0.0625 0.0000  plane waves:   12294
 k-point  8 :  -0.0625-0.1875 0.0000  plane waves:   12294
 k-point  9 :  -0.1875-0.1250 0.0000  plane waves:   12294
 k-point 10 :   0.3125 0.0625 0.0000  plane waves:   12263
 k-point 11 :   0.2500 0.3125 0.0000  plane waves:   12263
 k-point 12 :  -0.0625 0.2500 0.0000  plane waves:   12263
 k-point 13 :   0.2500-0.0625 0.0000  plane waves:   12263
 k-point 14 :  -0.0625-0.3125 0.0000  plane waves:   12263
 k-point 15 :  -0.3125-0.2500 0.0000  plane waves:   12263
 k-point 16 :   0.4375 0.0625 0.0000  plane waves:   12221
 k-point 17 :   0.3750 0.4375 0.0000  plane waves:   12221
 k-point 18 :  -0.0625 0.3750 0.0000  plane waves:   12221
 k-point 19 :   0.3750-0.0625 0.0000  plane waves:   12221
 k-point 20 :  -0.0625-0.4375 0.0000  plane waves:   12221
 k-point 21 :  -0.4375-0.3750 0.0000  plane waves:   12221
 k-point 22 :  -0.4375 0.0625 0.0000  plane waves:   12211
 k-point 23 :   0.5000-0.4375 0.0000  plane waves:   12211
 k-point 24 :  -0.0625 0.5000 0.0000  plane waves:   12211
 k-point 25 :   0.5000-0.0625 0.0000  plane waves:   12211
 k-point 26 :  -0.0625 0.4375 0.0000  plane waves:   12211
 k-point 27 :   0.4375 0.5000 0.0000  plane waves:   12211
 k-point 28 :  -0.3125 0.0625 0.0000  plane waves:   12242
 k-point 29 :  -0.3750-0.3125 0.0000  plane waves:   12242
 k-point 30 :  -0.0625-0.3750 0.0000  plane waves:   12242
 k-point 31 :  -0.3750-0.0625 0.0000  plane waves:   12242
 k-point 32 :  -0.0625 0.3125 0.0000  plane waves:   12242
 k-point 33 :   0.3125 0.3750 0.0000  plane waves:   12242
 k-point 34 :  -0.1875 0.0625 0.0000  plane waves:   12280
 k-point 35 :  -0.2500-0.1875 0.0000  plane waves:   12280
 k-point 36 :  -0.0625-0.2500 0.0000  plane waves:   12280
 k-point 37 :  -0.2500-0.0625 0.0000  plane waves:   12280
 k-point 38 :  -0.0625 0.1875 0.0000  plane waves:   12280
 k-point 39 :   0.1875 0.2500 0.0000  plane waves:   12280
 k-point 40 :  -0.0625 0.0625 0.0000  plane waves:   12329
 k-point 41 :  -0.1250-0.0625 0.0000  plane waves:   12329
 k-point 42 :  -0.0625-0.1250 0.0000  plane waves:   12329
 k-point 43 :   0.1875 0.1875 0.0000  plane waves:   12277
 k-point 44 :   0.0000 0.1875 0.0000  plane waves:   12277
 k-point 45 :  -0.1875 0.0000 0.0000  plane waves:   12277
 k-point 46 :   0.3125 0.1875 0.0000  plane waves:   12288
 k-point 47 :   0.1250 0.3125 0.0000  plane waves:   12288
 k-point 48 :  -0.1875 0.1250 0.0000  plane waves:   12288
 k-point 49 :   0.1250-0.1875 0.0000  plane waves:   12288
 k-point 50 :  -0.1875-0.3125 0.0000  plane waves:   12288
 k-point 51 :  -0.3125-0.1250 0.0000  plane waves:   12288
 k-point 52 :   0.4375 0.1875 0.0000  plane waves:   12234
 k-point 53 :   0.2500 0.4375 0.0000  plane waves:   12234
 k-point 54 :  -0.1875 0.2500 0.0000  plane waves:   12234
 k-point 55 :   0.2500-0.1875 0.0000  plane waves:   12234
 k-point 56 :  -0.1875-0.4375 0.0000  plane waves:   12234
 k-point 57 :  -0.4375-0.2500 0.0000  plane waves:   12234
 k-point 58 :  -0.4375 0.1875 0.0000  plane waves:   12216
 k-point 59 :   0.3750-0.4375 0.0000  plane waves:   12216
 k-point 60 :  -0.1875 0.3750 0.0000  plane waves:   12216
 k-point 61 :   0.3750-0.1875 0.0000  plane waves:   12216
 k-point 62 :  -0.1875 0.4375 0.0000  plane waves:   12216
 k-point 63 :   0.4375-0.3750 0.0000  plane waves:   12216
 k-point 64 :  -0.3125 0.1875 0.0000  plane waves:   12215
 k-point 65 :   0.5000-0.3125 0.0000  plane waves:   12215
 k-point 66 :  -0.1875 0.5000 0.0000  plane waves:   12215
 k-point 67 :   0.5000-0.1875 0.0000  plane waves:   12215
 k-point 68 :  -0.1875 0.3125 0.0000  plane waves:   12215
 k-point 69 :   0.3125 0.5000 0.0000  plane waves:   12215
 k-point 70 :  -0.1875 0.1875 0.0000  plane waves:   12289
 k-point 71 :  -0.3750-0.1875 0.0000  plane waves:   12289
 k-point 72 :  -0.1875-0.3750 0.0000  plane waves:   12289
 k-point 73 :   0.3125 0.3125 0.0000  plane waves:   12275
 k-point 74 :   0.0000 0.3125 0.0000  plane waves:   12275
 k-point 75 :  -0.3125 0.0000 0.0000  plane waves:   12275
 k-point 76 :   0.4375 0.3125 0.0000  plane waves:   12239
 k-point 77 :   0.1250 0.4375 0.0000  plane waves:   12239
 k-point 78 :  -0.3125 0.1250 0.0000  plane waves:   12239
 k-point 79 :   0.1250-0.3125 0.0000  plane waves:   12239
 k-point 80 :  -0.3125-0.4375 0.0000  plane waves:   12239
 k-point 81 :  -0.4375-0.1250 0.0000  plane waves:   12239
 k-point 82 :  -0.4375 0.3125 0.0000  plane waves:   12235
 k-point 83 :   0.2500-0.4375 0.0000  plane waves:   12235
 k-point 84 :  -0.3125 0.2500 0.0000  plane waves:   12235
 k-point 85 :   0.2500-0.3125 0.0000  plane waves:   12235
 k-point 86 :  -0.3125 0.4375 0.0000  plane waves:   12235
 k-point 87 :   0.4375-0.2500 0.0000  plane waves:   12235
 k-point 88 :  -0.3125 0.3125 0.0000  plane waves:   12232
 k-point 89 :   0.3750-0.3125 0.0000  plane waves:   12232
 k-point 90 :  -0.3125 0.3750 0.0000  plane waves:   12232
 k-point 91 :   0.4375 0.4375 0.0000  plane waves:   12200
 k-point 92 :   0.0000 0.4375 0.0000  plane waves:   12200
 k-point 93 :  -0.4375 0.0000 0.0000  plane waves:   12200
 k-point 94 :  -0.4375 0.4375 0.0000  plane waves:   12214
 k-point 95 :   0.1250-0.4375 0.0000  plane waves:   12214
 k-point 96 :  -0.4375 0.1250 0.0000  plane waves:   12214

 maximum and minimum number of plane-waves per node :      3101     2992

 maximum number of plane-waves:     12329
 maximum index in each direction: 
   IXMAX=    8   IYMAX=    8   IZMAX=   46
   IXMIN=   -8   IYMIN=   -8   IZMIN=  -46


 real space projection operators:
  total allocation   :       5079.80 KBytes
  max/ min on nodes  :       1273.78       1267.54


 parallel 3D FFT for wavefunctions:
    minimum data exchange during FFTs selected (reduces bandwidth)
 parallel 3D FFT for charge:
    minimum data exchange during FFTs selected (reduces bandwidth)


 total amount of memory used by VASP MPI-rank0   164306. kBytes
=======================================================================

   base      :      30000. kBytes
   nonlr-proj:       2353. kBytes
   fftplans  :       2967. kBytes
   grid      :       6321. kBytes
   one-center:         93. kBytes
   wavefun   :     122572. kBytes
 
     INWAV:  cpu time    0.0000: real time    0.0000
 Broyden mixing: mesh for mixing (old mesh)
   NGX = 17   NGY = 17   NGZ = 93
  (NGX  = 56   NGY  = 56   NGZ  =288)
  gives a total of  26877 points

 initial charge density was supplied:
 charge density of overlapping atoms calculated
 number of electron     168.0000000 magnetization 
 keeping initial charge density in first step


--------------------------------------------------------------------------------------------------------


 Maximum index for non-local projection operator          536
 Maximum index for augmentation-charges          727 (set IRDMAX)


--------------------------------------------------------------------------------------------------------


 First call to EWALD:  gamma=   0.189
 Maximum number of real-space cells 5x 5x 1
 Maximum number of reciprocal cells 2x 2x 8

    FEWALD:  cpu time    0.0013: real time    0.0013


--------------------------------------- Iteration      1(   1)  ---------------------------------------


    POTLOK:  cpu time    0.0259: real time    0.0323
    SETDIJ:  cpu time    0.0034: real time    0.0035
     EDDAV:  cpu time   13.7252: real time   13.7632
       DOS:  cpu time    0.0076: real time    0.0076
    --------------------------------------------
      LOOP:  cpu time   13.7621: real time   13.8065

 eigenvalue-minimisations  : 19320
 total energy-change (2. order) : 0.1013765E+04  (-0.5819806E+04)
 number of electron     168.0000000 magnetization 
 augmentation part      168.0000000 magnetization 

 Free energy of the ion-electron system (eV)
  ---------------------------------------------------
  alpha Z        PSCENC =       324.87461712
  Ewald energy   TEWEN  =     98709.01959693
  -Hartree energ DENC   =   -110998.53933190
  -exchange      EXHF   =         0.00000000
  -V(xc)+E(xc)   XCENC  =        68.39486148
  PAW double counting   =     11288.27476651   -10829.50941267
  entropy T*S    EENTRO =        -0.00259198
  eigenvalues    EBANDS =       560.61517515
  atomic energy  EATOM  =     11890.63736546
  Solvation  Ediel_sol  =         0.00000000
  ---------------------------------------------------
  free energy    TOTEN  =      1013.76504609 eV

  energy without entropy =     1013.76763808  energy(sigma->0) =     1013.76591009


--------------------------------------------------------------------------------------------------------




--------------------------------------- Iteration      1(   2)  ---------------------------------------


     EDDAV:  cpu time   16.1301: real time   16.1950
       DOS:  cpu time    0.0083: real time    0.0084
    --------------------------------------------
      LOOP:  cpu time   16.1385: real time   16.2034

 eigenvalue-minimisations  : 23760
 total energy-change (2. order) :-0.1042676E+04  (-0.9687951E+03)
 number of electron     168.0000000 magnetization 
 augmentation part      168.0000000 magnetization 

 Free energy of the ion-electron system (eV)
  ---------------------------------------------------
  alpha Z        PSCENC =       324.87461712
  Ewald energy   TEWEN  =     98709.01959693
  -Hartree energ DENC   =   -110998.53933190
  -exchange      EXHF   =         0.00000000
  -V(xc)+E(xc)   XCENC  =        68.39486148
  PAW double counting   =     11288.27476651   -10829.50941267
  entropy T*S    EENTRO =        -0.00451164
  eigenvalues    EBANDS =      -482.05874542
  atomic energy  EATOM  =     11890.63736546
  Solvation  Ediel_sol  =         0.00000000
  ---------------------------------------------------
  free energy    TOTEN  =       -28.91079415 eV

  energy without entropy =      -28.90628250  energy(sigma->0) =      -28.90929026


--------------------------------------------------------------------------------------------------------




--------------------------------------- Iteration      1(   3)  ---------------------------------------


     EDDAV:  cpu time   16.1802: real time   16.2356
       DOS:  cpu time    0.0087: real time    0.0087
    --------------------------------------------
      LOOP:  cpu time   16.1889: real time   16.2443

 eigenvalue-minimisations  : 23056
 total energy-change (2. order) :-0.9203006E+02  (-0.8508969E+02)
 number of electron     168.0000000 magnetization 
 augmentation part      168.0000000 magnetization 

 Free energy of the ion-electron system (eV)
  ---------------------------------------------------
  alpha Z        PSCENC =       324.87461712
  Ewald energy   TEWEN  =     98709.01959693
  -Hartree energ DENC   =   -110998.53933190
  -exchange      EXHF   =         0.00000000
  -V(xc)+E(xc)   XCENC  =        68.39486148
  PAW double counting   =     11288.27476651   -10829.50941267
  entropy T*S    EENTRO =        -0.00717769
  eigenvalues    EBANDS =      -574.08613835
  atomic energy  EATOM  =     11890.63736546
  Solvation  Ediel_sol  =         0.00000000
  ---------------------------------------------------
  free energy    TOTEN  =      -120.94085311 eV

  energy without entropy =     -120.93367542  energy(sigma->0) =     -120.93846055


--------------------------------------------------------------------------------------------------------




--------------------------------------- Iteration      1(   4)  ---------------------------------------


     EDDAV:  cpu time   17.7003: real time   17.7428
       DOS:  cpu time    0.0087: real time    0.0087
    --------------------------------------------
      LOOP:  cpu time   17.7091: real time   17.7515

 eigenvalue-minimisations  : 25776
 total energy-change (2. order) :-0.4476885E+01  (-0.4248795E+01)
 number of electron     168.0000000 magnetization 
 augmentation part      168.0000000 magnetization 

 Free energy of the ion-electron system (eV)
  ---------------------------------------------------
  alpha Z        PSCENC =       324.87461712
  Ewald energy   TEWEN  =     98709.01959693
  -Hartree energ DENC   =   -110998.53933190
  -exchange      EXHF   =         0.00000000
  -V(xc)+E(xc)   XCENC  =        68.39486148
  PAW double counting   =     11288.27476651   -10829.50941267
  entropy T*S    EENTRO =        -0.00701093
  eigenvalues    EBANDS =      -578.56318975
  atomic energy  EATOM  =     11890.63736546
  Solvation  Ediel_sol  =         0.00000000
  ---------------------------------------------------
  free energy    TOTEN  =      -125.41773775 eV

  energy without entropy =     -125.41072683  energy(sigma->0) =     -125.41540078


--------------------------------------------------------------------------------------------------------




--------------------------------------- Iteration      1(   5)  ---------------------------------------


     EDDAV:  cpu time   17.8954: real time   17.9392
       DOS:  cpu time    0.0092: real time    0.0092
    CHARGE:  cpu time    0.7150: real time    0.7167
    MIXING:  cpu time    0.0009: real time    0.0010
    --------------------------------------------
      LOOP:  cpu time   18.6205: real time   18.6661

 eigenvalue-minimisations  : 26896
 total energy-change (2. order) :-0.1465459E+00  (-0.1451900E+00)
 number of electron     168.0000053 magnetization 
 augmentation part       47.1611630 magnetization 

 Broyden mixing:
  rms(total) = 0.42546E+01    rms(broyden)= 0.42545E+01
  rms(prec ) = 0.42964E+01
  weight for this iteration     100.00

 Free energy of the ion-electron system (eV)
  ---------------------------------------------------
  alpha Z        PSCENC =       324.87461712
  Ewald energy   TEWEN  =     98709.01959693
  -Hartree energ DENC   =   -110998.53933190
  -exchange      EXHF   =         0.00000000
  -V(xc)+E(xc)   XCENC  =        68.39486148
  PAW double counting   =     11288.27476651   -10829.50941267
  entropy T*S    EENTRO =        -0.00727401
  eigenvalues    EBANDS =      -578.70947261
  atomic energy  EATOM  =     11890.63736546
  Solvation  Ediel_sol  =         0.00000000
  ---------------------------------------------------
  free energy    TOTEN  =      -125.56428370 eV

  energy without entropy =     -125.55700968  energy(sigma->0) =     -125.56185903


--------------------------------------------------------------------------------------------------------




--------------------------------------- Iteration      1(   6)  ---------------------------------------


    POTLOK:  cpu time    0.0235: real time    0.0293
    SETDIJ:  cpu time    0.0034: real time    0.0034
     EDDAV:  cpu time   15.5949: real time   15.6388
       DOS:  cpu time    0.0097: real time    0.0098
    CHARGE:  cpu time    0.7267: real time    0.7284
    MIXING:  cpu time    0.0011: real time    0.0011
    --------------------------------------------
      LOOP:  cpu time   16.3593: real time   16.4108

 eigenvalue-minimisations  : 22616
 total energy-change (2. order) : 0.5471159E+01  (-0.3209933E+01)
 number of electron     168.0000048 magnetization 
 augmentation part       49.7194742 magnetization 

 Broyden mixing:
  rms(total) = 0.34735E+01    rms(broyden)= 0.34734E+01
  rms(prec ) = 0.37922E+01
  weight for this iteration     100.00

 eigenvalues of (default mixing * dielectric matrix)
  average eigenvalue GAMMA=   0.9753
  0.9753

 Free energy of the ion-electron system (eV)
  ---------------------------------------------------
  alpha Z        PSCENC =       324.87461712
  Ewald energy   TEWEN  =     98709.01959693
  -Hartree energ DENC   =   -110807.72151198
  -exchange      EXHF   =         0.00000000
  -V(xc)+E(xc)   XCENC  =        65.41451337
  PAW double counting   =     12551.94321250   -12116.58923991
  entropy T*S    EENTRO =         0.00782068
  eigenvalues    EBANDS =      -737.67949906
  atomic energy  EATOM  =     11890.63736546
  Solvation  Ediel_sol  =         0.00000000
  ---------------------------------------------------
  free energy    TOTEN  =      -120.09312488 eV

  energy without entropy =     -120.10094556  energy(sigma->0) =     -120.09573177


--------------------------------------------------------------------------------------------------------




--------------------------------------- Iteration      1(   7)  ---------------------------------------


    POTLOK:  cpu time    0.0225: real time    0.0227
    SETDIJ:  cpu time    0.0033: real time    0.0033
     EDDAV:  cpu time   19.3747: real time   19.4211
       DOS:  cpu time    0.0090: real time    0.0090
    CHARGE:  cpu time    0.7141: real time    0.7158
    MIXING:  cpu time    0.0011: real time    0.0011
    --------------------------------------------
      LOOP:  cpu time   20.1247: real time   20.1731

 eigenvalue-minimisations  : 29080
 total energy-change (2. order) :-0.5184125E+02  (-0.2303746E+02)
 number of electron     168.0000047 magnetization 
 augmentation part       47.8596978 magnetization 

 Broyden mixing:
  rms(total) = 0.57550E+01    rms(broyden)= 0.57549E+01
  rms(prec ) = 0.73476E+01
  weight for this iteration     100.00

 eigenvalues of (default mixing * dielectric matrix)
  average eigenvalue GAMMA=   0.8934
  1.6238  0.1630

 Free energy of the ion-electron system (eV)
  ---------------------------------------------------
  alpha Z        PSCENC =       324.87461712
  Ewald energy   TEWEN  =     98709.01959693
  -Hartree energ DENC   =   -110895.17869283
  -exchange      EXHF   =         0.00000000
  -V(xc)+E(xc)   XCENC  =        64.93552967
  PAW double counting   =     13181.66528183   -12753.19692420
  entropy T*S    EENTRO =        -0.00861682
  eigenvalues    EBANDS =      -694.68253632
  atomic energy  EATOM  =     11890.63736546
  Solvation  Ediel_sol  =         0.00000000
  ---------------------------------------------------
  free energy    TOTEN  =      -171.93437916 eV

  energy without entropy =     -171.92576234  energy(sigma->0) =     -171.93150689


--------------------------------------------------------------------------------------------------------




--------------------------------------- Iteration      1(   8)  ---------------------------------------


    POTLOK:  cpu time    0.0235: real time    0.0237
    SETDIJ:  cpu time    0.0034: real time    0.0034
     EDDAV:  cpu time   18.4884: real time   18.5324
       DOS:  cpu time    0.0096: real time    0.0096
    CHARGE:  cpu time    0.7251: real time    0.7387
    MIXING:  cpu time    0.0013: real time    0.0013
    --------------------------------------------
      LOOP:  cpu time   19.2512: real time   19.3090

 eigenvalue-minimisations  : 27584
 total energy-change (2. order) : 0.2617642E+02  (-0.1058367E+02)
 number of electron     168.0000067 magnetization 
 augmentation part       49.2834093 magnetization 

 Broyden mixing:
  rms(total) = 0.45445E+01    rms(broyden)= 0.45444E+01
  rms(prec ) = 0.50858E+01
  weight for this iteration     100.00

 eigenvalues of (default mixing * dielectric matrix)
  average eigenvalue GAMMA=   0.8380
  2.0806  0.2167  0.2167

 Free energy of the ion-electron system (eV)
  ---------------------------------------------------
[...]
     21      -5.2863      2.00000
     22      -5.1944      2.00000
     23      -5.1168      2.00000
     24      -5.0046      2.00000
     25      -4.9552      2.00000
     26      -4.9353      2.00000
     27      -4.8905      2.00000
     28      -4.8308      2.00000
     29      -4.8041      2.00000
     30      -4.5977      2.00000
     31      -4.5794      2.00000
     32      -4.5281      2.00000
     33      -4.4998      2.00000
     34      -4.4254      2.00000
     35      -4.3879      2.00000
     36      -4.3387      2.00000
     37      -4.2801      2.00000
     38      -4.2258      2.00000
     39      -4.1277      2.00000
     40      -4.0871      2.00000
     41      -3.9649      2.00000
     42      -3.8918      2.00000
     43      -3.8752      2.00000
     44      -3.8106      2.00000
     45      -3.7394      2.00000
     46      -3.6108      2.00000
     47      -3.5743      2.00000
     48      -3.5514      2.00000
     49      -3.4913      2.00000
     50      -3.4480      2.00000
     51      -3.4313      2.00000
     52      -3.4024      2.00000
     53      -3.3558      2.00000
     54      -3.2527      2.00000
     55      -3.1593      2.00000
     56      -3.1144      2.00000
     57      -3.0312      2.00000
     58      -2.8628      2.00000
     59      -2.7470      2.00000
     60      -2.6940      2.00000
     61      -2.6415      2.00000
     62      -2.5865      2.00000
     63      -2.4712      2.00000
     64      -2.4080      2.00000
     65      -2.2410      2.00000
     66      -2.2277      2.00000
     67      -2.1358      2.00000
     68      -2.0979      2.00000
     69      -1.9651      2.00000
     70      -1.9356      2.00000
     71      -1.8769      2.00000
     72      -1.8005      2.00000
     73      -1.7612      2.00000
     74      -1.6774      2.00000
     75      -1.6085      2.00000
     76      -1.5461      2.00000
     77      -1.5416      2.00000
     78      -1.3705      2.00000
     79      -1.1805      2.00078
     80      -1.1511      2.00158
     81      -1.0205      2.01991
     82      -0.9289      2.05776
     83      -0.8409      2.05631
     84      -0.7822      1.94549
     85      -0.7183      1.64534
     86      -0.5866      0.60731
     87      -0.5095      0.13822
     88      -0.4114     -0.06667
     89      -0.2469     -0.01946
     90      -0.1865     -0.00684
     91       0.3926     -0.00000
     92       0.7666     -0.00000
     93       1.6690     -0.00000
     94       1.7815     -0.00000
     95       1.8002     -0.00000
     96       2.5052     -0.00000
     97       3.4138     -0.00000
     98       3.6113     -0.00000
     99       4.1704     -0.00000
    100       4.1978     -0.00000

 k-point    96 :      -0.4375    0.1250    0.0000
  band No.  band energies     occupation 
      1     -12.0998      2.00000
      2      -8.1635      2.00000
      3      -8.1031      2.00000
      4      -7.0955      2.00000
      5      -7.0697      2.00000
      6      -6.7116      2.00000
      7      -6.4456      2.00000
      8      -6.3551      2.00000
      9      -6.2784      2.00000
     10      -6.2345      2.00000
     11      -6.1074      2.00000
     12      -6.0728      2.00000
     13      -6.0117      2.00000
     14      -5.9562      2.00000
     15      -5.8205      2.00000
     16      -5.6474      2.00000
     17      -5.6050      2.00000
     18      -5.5447      2.00000
     19      -5.5102      2.00000
     20      -5.3515      2.00000
     21      -5.2896      2.00000
     22      -5.1779      2.00000
     23      -5.1138      2.00000
     24      -5.0151      2.00000
     25      -4.9485      2.00000
     26      -4.9308      2.00000
     27      -4.8914      2.00000
     28      -4.8344      2.00000
     29      -4.8030      2.00000
     30      -4.5776      2.00000
     31      -4.5606      2.00000
     32      -4.5256      2.00000
     33      -4.4998      2.00000
     34      -4.4236      2.00000
     35      -4.3852      2.00000
     36      -4.3382      2.00000
     37      -4.2832      2.00000
     38      -4.2445      2.00000
     39      -4.0991      2.00000
     40      -4.0910      2.00000
     41      -3.9371      2.00000
     42      -3.8975      2.00000
     43      -3.8812      2.00000
     44      -3.8186      2.00000
     45      -3.7515      2.00000
     46      -3.6005      2.00000
     47      -3.5641      2.00000
     48      -3.5555      2.00000
     49      -3.4866      2.00000
     50      -3.4709      2.00000
     51      -3.4440      2.00000
     52      -3.4049      2.00000
     53      -3.3499      2.00000
     54      -3.2510      2.00000
     55      -3.1772      2.00000
     56      -3.1012      2.00000
     57      -2.9887      2.00000
     58      -2.8895      2.00000
     59      -2.7362      2.00000
     60      -2.6839      2.00000
     61      -2.6505      2.00000
     62      -2.6139      2.00000
     63      -2.4795      2.00000
     64      -2.3928      2.00000
     65      -2.2639      2.00000
     66      -2.2372      2.00000
     67      -2.1278      2.00000
     68      -2.0276      2.00000
     69      -2.0027      2.00000
     70      -1.9457      2.00000
     71      -1.8635      2.00000
     72      -1.8391      2.00000
     73      -1.7620      2.00000
     74      -1.6867      2.00000
     75      -1.6126      2.00000
     76      -1.5345      2.00000
     77      -1.4922      2.00000
     78      -1.3852      2.00000
     79      -1.2047      2.00042
     80      -1.0764      2.00766
     81      -1.0543      2.01145
     82      -0.9622      2.04258
     83      -0.8473      2.06118
     84      -0.7713      1.90842
     85      -0.6903      1.45303
     86      -0.5876      0.61529
     87      -0.5516      0.36086
     88      -0.3847     -0.07074
     89      -0.2438     -0.01855
     90      -0.2022     -0.00918
     91       0.3886     -0.00000
     92       0.7658     -0.00000
     93       1.6657     -0.00000
     94       1.7190     -0.00000
     95       1.8498     -0.00000
     96       2.5007     -0.00000
     97       3.4236     -0.00000
     98       3.6077     -0.00000
     99       4.1348     -0.00000
    100       4.1879     -0.00000


--------------------------------------------------------------------------------------------------------


 soft charge-density along one line, spin component           1
         0         1         2         3         4         5         6         7         8         9
 total charge-density along one line
 
 pseudopotential strength for first ion, spin component:           1
 -8.033   0.000   0.000  -0.005   0.000  -8.180   0.000   0.000
  0.000  -8.017   0.002   0.000  -0.009   0.000  -8.164   0.001
  0.000   0.002  -8.033   0.000  -0.001   0.000   0.001  -8.180
 -0.005   0.000   0.000  -8.015   0.000  -0.005   0.000   0.000
  0.000  -0.009  -0.001   0.000  -8.034   0.000  -0.009  -0.001
 -8.180   0.000   0.000  -0.005   0.000  -8.311   0.000   0.000
  0.000  -8.164   0.001   0.000  -0.009   0.000  -8.295   0.001
  0.000   0.001  -8.180   0.000  -0.001   0.000   0.001  -8.311
 -0.005   0.000   0.000  -8.162   0.000  -0.005   0.000   0.000
  0.000  -0.009  -0.001   0.000  -8.180   0.000  -0.009  -0.001
 -0.000  -0.001  -0.002  -0.000  -0.000  -0.000  -0.001  -0.002
 -0.000  -0.001  -0.002  -0.000  -0.001  -0.000  -0.001  -0.002
 -0.000  -0.002   0.000   0.000  -0.000  -0.000  -0.002   0.000
  0.000  -0.000  -0.002   0.000   0.000   0.000  -0.000  -0.002
 -0.000   0.000   0.000  -0.002  -0.000  -0.000   0.000   0.000
 -0.000  -0.002   0.000   0.000  -0.000  -0.000  -0.002   0.000
  0.000  -0.000  -0.003  -0.000   0.000   0.000  -0.000  -0.003
 -0.000   0.000   0.000  -0.002  -0.000  -0.000   0.000   0.000
 total augmentation occupancy for first ion, spin component:           1
  6.173   0.003   0.009   0.253   0.009  -4.164  -0.002  -0.006  -0.349  -0.007   0.004  -0.000   0.001   0.000   0.003  -0.000
  0.003   6.227   0.036   0.006   0.212  -0.002  -4.030  -0.024  -0.001  -0.320   0.013  -0.002   0.005   0.001   0.000  -0.002
  0.009   0.036   6.141   0.005  -0.007  -0.006  -0.024  -4.229  -0.001   0.007   0.078  -0.033   0.002   0.023  -0.000  -0.000
  0.253   0.006   0.005   6.246   0.004  -0.348  -0.001  -0.001  -4.033  -0.002   0.005  -0.000   0.000   0.000   0.006   0.000
  0.009   0.212  -0.007   0.004   6.167  -0.007  -0.320   0.007  -0.002  -4.159   0.008   0.000   0.001  -0.002   0.000  -0.000
 -4.164  -0.002  -0.006  -0.348  -0.007   4.068   0.001   0.003   0.420   0.006  -0.004   0.001  -0.001  -0.000  -0.004   0.000
 -0.002  -4.030  -0.024  -0.001  -0.320   0.001   3.783   0.014  -0.003   0.400  -0.009  -0.001  -0.011  -0.000  -0.000   0.001
 -0.006  -0.024  -4.229  -0.001   0.007   0.003   0.014   4.203  -0.002  -0.007  -0.086   0.032  -0.002  -0.024   0.000   0.000
 -0.349  -0.001  -0.001  -4.033  -0.002   0.420  -0.003  -0.002   3.773   0.001  -0.005   0.000  -0.000  -0.000  -0.012  -0.000
 -0.007  -0.320   0.007  -0.002  -4.159   0.006   0.400  -0.007   0.001   4.063  -0.007  -0.001  -0.003   0.002  -0.000   0.000
  0.004   0.013   0.078   0.005   0.008  -0.004  -0.009  -0.086  -0.005  -0.007   3.049  -0.841   0.000  -0.019  -0.000   0.000
 -0.000  -0.002  -0.033  -0.000   0.000   0.001  -0.001   0.032   0.000  -0.001  -0.841   0.254   0.000   0.006   0.000  -0.000
  0.001   0.005   0.002   0.000   0.001  -0.001  -0.011  -0.002  -0.000  -0.003   0.000   0.000   0.248  -0.001  -0.000  -0.008
  0.000   0.001   0.023   0.000  -0.002  -0.000  -0.000  -0.024  -0.000   0.002  -0.019   0.006  -0.001   0.239  -0.000   0.000
  0.003   0.000  -0.000   0.006   0.000  -0.004  -0.000   0.000  -0.012  -0.000  -0.000   0.000  -0.000  -0.000   0.247   0.000
 -0.000  -0.002  -0.000   0.000  -0.000   0.000   0.001   0.000  -0.000   0.000   0.000  -0.000  -0.008   0.000   0.000   0.000
 -0.000  -0.000  -0.003  -0.000   0.000  -0.000   0.000   0.001   0.000  -0.000   0.001  -0.000   0.000  -0.008   0.000   0.000
 -0.000  -0.000   0.000  -0.002  -0.000   0.000  -0.000  -0.000   0.001   0.000   0.000  -0.000   0.000   0.000  -0.008   0.000


------------------------ aborting loop because EDIFF is reached ----------------------------------------



 DIPCOR: dipole corrections for dipol
 direction  3 min pos    20,
 dipolmoment           0.000000      0.000000     -0.039119 electrons x Angstroem
 Tr[quadrupol]      -950.872736

 energy correction for charged system         0.000000 eV
 dipol+quadrupol energy correction            0.000168 eV
 added-field ion interaction          0.000000 eV  (added to PSCEN)

 
  *************** adding dipol energy to TOTEN NOW **************** 
    CHARGE:  cpu time    0.7328: real time    0.7345
    FORLOC:  cpu time    0.0069: real time    0.0069
    FORNL :  cpu time    3.2192: real time    3.2271
    STRESS:  cpu time    9.6112: real time    9.6346
    FORCOR:  cpu time    0.0292: real time    0.0293
    FORHAR:  cpu time    0.0119: real time    0.0120
    MIXING:  cpu time    0.0036: real time    0.0036
    OFIELD:  cpu time    0.0000: real time    0.0000

  FORCE on cell =-STRESS in cart. coord.  units (eV):
  Direction    XX          YY          ZZ          XY          YZ          ZX
  --------------------------------------------------------------------------------------
  Alpha Z   324.87462   324.87462   324.87462
  Ewald  107595.13849107603.46475************    -1.95663    -3.63263    -2.08518
  Hartree110045.63031110048.51252************    -0.41159    -0.98892    -0.53872
  E(xc)    -736.89245  -736.87353  -741.61560    -0.00973    -0.03329    -0.01320
  Local  ************************222794.57447     1.96982     3.46494     2.09844
  n-local    42.91274    43.20308    24.79692    -0.09855    -0.08744    -0.14162
  augment   834.52283   834.20020   863.13559     0.14869     0.43739     0.22215
  Kinetic  2382.84471  2382.06315  2456.19932     0.35830     0.83927     0.40902
  Fock        0.00000     0.00000     0.00000     0.00000     0.00000     0.00000
  -------------------------------------------------------------------------------------
  Total     -12.15243   -12.09452    -0.92918     0.00031    -0.00068    -0.04912
  in kB     -23.62541   -23.51281    -1.80641     0.00061    -0.00133    -0.09549
  external pressure =      -16.31 kB  Pullay stress =        0.00 kB


 VOLUME and BASIS-vectors are now :
 -----------------------------------------------------------------------------
  energy-cutoff  :      350.00
  volume of cell :      824.13
      direct lattice vectors                 reciprocal lattice vectors
     5.557859300  0.000000000  0.000000000     0.179925390 -0.103879972  0.000000000
     2.778929650  4.813247345  0.000000000     0.000000000  0.207759944  0.000000000
     0.000000000  0.000000000 30.806959674     0.000000000  0.000000000  0.032460198

  length of vectors
     5.557859300  5.557859300 30.806959674     0.207759944  0.207759944  0.032460198


 FORCES acting on ions
    electron-ion (+dipol)            ewald-force                    non-local-force                 convergence-correction
 -----------------------------------------------------------------------------------------------
   -.228E+00 0.533E+00 -.838E+03   0.231E+00 -.515E+00 0.838E+03   0.540E-02 -.105E-01 0.287E+00   0.880E-04 0.277E-03 0.270E-01
   0.650E-01 -.503E-01 -.116E+04   -.652E-01 0.590E-01 0.116E+04   0.223E-01 0.414E-02 0.208E-01   -.285E-04 -.313E-04 -.407E-02
   -.196E+02 -.306E+02 -.275E+03   0.217E+02 0.340E+02 0.272E+03   -.214E+01 -.335E+01 0.362E+01   -.113E-04 -.193E-04 -.136E-02
   0.348E+02 -.237E+02 -.300E+03   -.387E+02 0.263E+02 0.303E+03   0.384E+01 -.262E+01 -.279E+01   -.368E-04 0.173E-04 -.608E-03
   0.198E+02 0.386E+02 -.280E+03   -.220E+02 -.429E+02 0.277E+03   0.218E+01 0.426E+01 0.255E+01   -.378E-05 -.639E-05 -.126E-02
   -.352E+02 0.156E+02 -.302E+03   0.390E+02 -.173E+02 0.306E+03   -.387E+01 0.172E+01 -.337E+01   0.269E-04 -.179E-04 -.530E-03
   -.558E-01 0.280E+00 0.264E+04   0.437E-01 -.283E+00 -.264E+04   0.125E-01 0.361E-01 -.194E+00   -.413E-04 -.776E-04 0.397E-02
   -.460E+01 -.374E+01 -.264E+04   0.479E+01 0.386E+01 0.264E+04   -.582E-01 -.611E-01 0.107E+01   -.736E-04 0.102E-03 0.377E-02
   0.475E+01 -.442E+01 -.264E+04   -.492E+01 0.454E+01 0.264E+04   0.367E-01 -.537E-01 0.101E+01   0.737E-04 -.499E-04 0.382E-02
   -.466E+00 0.699E+01 -.264E+04   0.483E+00 -.717E+01 0.264E+04   -.872E-02 0.359E-01 0.104E+01   -.133E-03 0.102E-04 0.374E-02
   0.703E+00 0.183E+01 -.262E+04   -.688E+00 -.180E+01 0.262E+04   -.247E-01 -.250E-01 0.115E+01   0.134E-03 -.797E-04 0.377E-02
   -.924E-01 -.173E+00 0.294E+04   0.832E-01 0.109E+00 -.294E+04   0.149E-01 0.889E-01 -.643E+00   0.450E-04 -.225E-03 0.381E-02
   0.215E+00 -.116E+01 -.762E+03   -.212E+00 0.114E+01 0.761E+03   -.995E-02 0.728E-01 0.477E+00   -.837E-04 -.443E-03 0.246E-01
   0.992E-03 -.556E+01 0.113E+04   -.600E-02 0.576E+01 -.113E+04   -.128E-03 -.110E-01 -.345E+00   -.219E-03 -.174E-02 0.223E-01
   -.983E-02 -.619E+01 0.113E+04   0.396E-02 0.638E+01 -.113E+04   0.254E-02 0.111E-01 -.300E+00   0.218E-03 0.407E-04 0.209E-01
   -.518E+00 0.579E+01 0.113E+04   0.507E+00 -.601E+01 -.113E+04   0.635E-02 0.146E-01 -.265E+00   0.153E-02 0.973E-03 0.221E-01
   0.431E+00 0.580E+01 0.113E+04   -.422E+00 -.601E+01 -.113E+04   -.500E-02 0.962E-02 -.272E+00   -.153E-02 0.725E-03 0.223E-01
   -.535E+00 -.384E+00 0.294E+04   0.469E+00 0.364E+00 -.294E+04   0.725E-01 -.298E-02 -.761E+00   -.124E-03 0.185E-03 0.378E-02
   0.354E+00 -.365E+00 0.294E+04   -.316E+00 0.341E+00 -.294E+04   -.409E-01 -.319E-02 -.759E+00   0.127E-03 0.129E-03 0.387E-02
   -.149E+01 0.517E+00 -.761E+03   0.145E+01 -.498E+00 0.761E+03   0.883E-01 -.354E-01 0.402E+00   -.605E-03 0.507E-04 0.247E-01
   0.157E+01 0.292E+00 -.761E+03   -.152E+01 -.274E+00 0.761E+03   -.988E-01 -.290E-01 0.412E+00   0.605E-03 0.142E-03 0.246E-01
 -----------------------------------------------------------------------------------------------
   -.304E-01 -.484E-01 -.261E+01   0.755E-14 0.104E-13 0.114E-11   0.212E-01 0.572E-01 0.235E+01   -.429E-04 -.425E-04 0.211E+00
 
 
 POSITION                                       TOTAL-FORCE (eV/Angst)
 -----------------------------------------------------------------------------------
      2.79162      1.62599     16.61742         0.008482      0.007022      0.187847
      5.57154      0.12125     22.66560         0.022480      0.012410      0.024282
      6.00961      0.80680     21.92257        -0.001698     -0.020939      0.031473
      4.79198      0.65115     23.23192         0.000403     -0.015025      0.000020
      2.35072      4.07031     22.14848        -0.017429      0.000636      0.007557
      3.57960      4.58485     23.35005        -0.005661      0.017566     -0.006499
      2.77893      0.00000     12.00000         0.000869      0.032634      1.145985
      4.18714      2.43784     18.94362         0.130816      0.058834      0.162806
      1.40984      2.43737     18.94422        -0.132511      0.069239      0.168447
      2.79820      0.03292     18.94454         0.008640     -0.143817      0.159210
      0.02018      0.03315     18.93962        -0.009106      0.009555     -0.022864
      0.00000      0.00000     12.00000         0.006153      0.023740     -0.362116
      5.57104      1.62610     16.61676        -0.006296      0.049499     -0.189224
      5.56409      3.21942     14.32281        -0.004910      0.183036     -0.245413
      2.78520      3.21797     14.32142        -0.002667      0.199757     -0.126399
      4.17392      0.81312     14.32129        -0.002739     -0.201739     -0.448835
      1.39575      0.81301     14.32160         0.003320     -0.205067     -0.446612
      4.16839      2.40662     12.00000         0.006472     -0.023229     -0.075415
      1.38946      2.40662     12.00000        -0.002505     -0.026530     -0.073577
      4.18055      4.03317     16.61644         0.046830     -0.016854      0.050525
      6.96197      4.03320     16.61602        -0.048942     -0.010728      0.058802
 -----------------------------------------------------------------------------------
    total drift:                               -0.009266      0.008703     -0.043367


--------------------------------------------------------------------------------------------------------



  FREE ENERGIE OF THE ION-ELECTRON SYSTEM (eV)
  ---------------------------------------------------
  free  energy   TOTEN  =      -115.77077643 eV

  energy  without entropy=     -115.75683703  energy(sigma->0) =     -115.76612996
 


--------------------------------------------------------------------------------------------------------


    POTLOK:  cpu time    0.0268: real time    0.0268


--------------------------------------------------------------------------------------------------------


     LOOP+:  cpu time  559.2447: real time  560.8604
    4ORBIT:  cpu time    0.0000: real time    0.0000

 total amount of memory used by VASP MPI-rank0   164306. kBytes
=======================================================================

   base      :      30000. kBytes
   nonlr-proj:       2353. kBytes
   fftplans  :       2967. kBytes
   grid      :       6321. kBytes
   one-center:         93. kBytes
   wavefun   :     122572. kBytes
 
  
  
 General timing and accounting informations for this job:
 ========================================================
  
                  Total CPU time used (sec):      566.979
                            User time (sec):      565.218
                          System time (sec):        1.761
                         Elapsed time (sec):      568.825
  
                   Maximum memory used (kb):      208956.
                   Average memory used (kb):           0.
  
                          Minor page faults:        83356
                          Major page faults:            0
                 Voluntary context switches:          940
