       N       E                     dE             d eps       ncg     rms          rms(c)
DAV:   1     0.102991521722E+04    0.10299E+04   -0.58326E+04 19296   0.103E+03
DAV:   2    -0.291180399183E+02   -0.10590E+04   -0.98498E+03 24040   0.259E+02
DAV:   3    -0.120708442923E+03   -0.91590E+02   -0.84845E+02 23112   0.760E+01
DAV:   4    -0.125157253031E+03   -0.44488E+01   -0.42218E+01 25568   0.169E+01
DAV:   5    -0.125294040754E+03   -0.13679E+00   -0.13555E+00 25636   0.293E+00    0.436E+01
DAV:   6    -0.118117310998E+03    0.71767E+01   -0.34193E+01 23084   0.239E+01    0.323E+01
DAV:   7    -0.151033383663E+03   -0.32916E+02   -0.13997E+02 28452   0.654E+01    0.521E+01
DAV:   8    -0.128021968148E+03    0.23011E+02   -0.54901E+01 29556   0.447E+01    0.314E+01
DAV:   9    -0.126276849009E+03    0.17451E+01   -0.67216E+01 25576   0.427E+01    0.286E+01
DAV:  10    -0.129481714861E+03   -0.32049E+01   -0.49076E+01 30884   0.514E+01    0.299E+01
DAV:  11    -0.116828840118E+03    0.12653E+02   -0.24186E+01 27536   0.204E+01    0.122E+01
DAV:  12    -0.116974012850E+03   -0.14517E+00   -0.83667E+00 26632   0.141E+01    0.136E+01
DAV:  13    -0.115697055377E+03    0.12770E+01   -0.87051E+00 27312   0.944E+00    0.678E+00
DAV:  14    -0.115392407778E+03    0.30465E+00   -0.16912E+00 23124   0.568E+00    0.444E+00
DAV:  15    -0.115382947320E+03    0.94605E-02   -0.89004E-02 21604   0.113E+00    0.413E+00
DAV:  16    -0.115368851695E+03    0.14096E-01   -0.19266E-02 28872   0.543E-01    0.382E+00
DAV:  17    -0.115347018431E+03    0.21833E-01   -0.22883E-01 21556   0.182E+00    0.262E+00
DAV:  18    -0.115332875684E+03    0.14143E-01   -0.46407E-02 21248   0.105E+00    0.200E+00
DAV:  19    -0.115321846198E+03    0.11029E-01   -0.14811E-02 23896   0.516E-01    0.148E+00
DAV:  20    -0.115315411793E+03    0.64344E-02   -0.11061E-02 22768   0.481E-01    0.109E+00
DAV:  21    -0.115312798486E+03    0.26133E-02   -0.35514E-03 22104   0.250E-01    0.902E-01
DAV:  22    -0.115311088755E+03    0.17097E-02   -0.13991E-03 23656   0.173E-01    0.757E-01
DAV:  23    -0.115308715876E+03    0.23729E-02   -0.21276E-03 21956   0.223E-01    0.530E-01
DAV:  24    -0.115307455371E+03    0.12605E-02   -0.13601E-03 26344   0.152E-01    0.372E-01
DAV:  25    -0.115306471141E+03    0.98423E-03   -0.16827E-03 27528   0.154E-01    0.178E-01
DAV:  26    -0.115306328701E+03    0.14244E-03   -0.40210E-04 26280   0.859E-02    0.105E-01
DAV:  27    -0.115306362006E+03   -0.33305E-04   -0.25190E-04 22520   0.699E-02    0.498E-02
DAV:  28    -0.115306418620E+03   -0.56614E-04   -0.61959E-05 15596   0.354E-02    0.332E-02
DAV:  29    -0.115306506177E+03   -0.87557E-04   -0.28503E-05 12292   0.232E-02    0.252E-02
DAV:  30    -0.115306649810E+03   -0.14363E-03   -0.34799E-05 14028   0.219E-02    0.324E-02
DAV:  31    -0.115306760527E+03   -0.11072E-03   -0.77624E-06 12324   0.113E-02    0.344E-02
DAV:  32    -0.115306846600E+03   -0.86073E-04   -0.39909E-06 12348   0.741E-03    0.303E-02
DAV:  33    -0.115306946377E+03   -0.99777E-04   -0.48441E-06 12484   0.801E-03    0.284E-02
DAV:  34    -0.115307006019E+03   -0.59642E-04   -0.98860E-06 12360   0.134E-02    0.131E-02
DAV:  35    -0.115307049615E+03   -0.43596E-04   -0.68814E-06 12360   0.881E-03    0.502E-03
DAV:  36    -0.115307066082E+03   -0.16467E-04   -0.19395E-06 12000   0.477E-03    0.569E-03
DAV:  37    -0.115307076142E+03   -0.10060E-04   -0.92483E-07 12024   0.340E-03    0.567E-03
DAV:  38    -0.115307083397E+03   -0.72546E-05   -0.37355E-07 11280   0.244E-03
   1 F= -.11529847E+03 E0= -.11528745E+03  d E =-.330462E-01
