 vasp.5.4.4.18Apr17-6-g9f103f2a35 (build Apr 28 2017 10:53:45) complex          
  
 executed on             LinuxIFC date 2019.07.18  17:55:27
 running on   16 total cores
 distrk:  each k-point on   16 cores,    1 groups
 distr:  one band on NCORES_PER_BAND=   4 cores,    4 groups


--------------------------------------------------------------------------------------------------------


 INCAR:
 POTCAR:    PAW_PBE Au 04Oct2007                  
 POTCAR:    PAW_PBE C 08Apr2002                   
 POTCAR:    PAW_PBE H 15Jun2001                   
 POTCAR:    PAW_PBE Ir 06Sep2000                  
 POTCAR:    PAW_PBE Pt 04Feb2005                  
 POTCAR:    PAW_PBE Au 04Oct2007                  
   VRHFIN =Au: s1d10                                                            
   LEXCH  = PE                                                                  
   EATOM  =   926.0867 eV,   68.0654 Ry                                         
                                                                                
   TITEL  = PAW_PBE Au 04Oct2007                                                
   LULTRA =        F    use ultrasoft PP ?                                      
   IUNSCR =        1    unscreen: 0-lin 1-nonlin 2-no                           
   RPACOR =    2.330    partial core radius                                     
   POMASS =  196.966; ZVAL   =   11.000    mass and valenz                      
   RCORE  =    2.500    outmost cutoff radius                                   
   RWIGS  =    2.840; RWIGS  =    1.503    wigner-seitz radius (au A)           
   ENMAX  =  229.943; ENMIN  =  172.457 eV                                      
   ICORE  =        3    local potential                                         
   LCOR   =        T    correct aug charges                                     
   LPAW   =        T    paw PP                                                  
   EAUG   =  356.670                                                            
   DEXC   =    0.000                                                            
   RMAX   =    2.562    core radius for proj-oper                               
   RAUG   =    1.300    factor for augmentation sphere                          
   RDEP   =    2.598    radius for radial grids                                 
   RDEPT  =    2.193    core radius for aug-charge                              
                                                                                
   Atomic configuration                                                         
   16 entries                                                                   
     n  l   j            E        occ.                                          
     1  0  0.50    -80748.5001   2.0000                                         
     2  0  0.50    -14244.7466   2.0000                                         
     2  1  1.50    -12310.9591   6.0000                                         
     3  0  0.50     -3362.1768   2.0000                                         
     3  1  1.50     -2801.5463   6.0000                                         
     3  2  2.50     -2203.8206  10.0000                                         
     4  0  0.50      -729.8168   2.0000                                         
     4  1  1.50      -546.0527   6.0000                                         
     4  2  2.50      -325.7302  10.0000                                         
     4  3  3.50       -81.1472  14.0000                                         
     5  0  0.50      -108.3201   2.0000                                         
     5  1  1.50       -59.7479   6.0000                                         
     5  2  2.50        -6.8783  10.0000                                         
     6  0  0.50        -5.7602   1.0000                                         
     6  1  1.50        -6.8029   0.0000                                         
     5  3  2.50        -1.3606   0.0000                                         
   Description                                                                  
     l       E           TYP  RCUT    TYP  RCUT                                 
     2     -6.8782861     23  2.500                                             
     2     -8.2388687     23  2.500                                             
     0     -5.7601759     23  2.500                                             
     0     -0.8493231     23  2.500                                             
     1     -2.7211652     23  2.500                                             
     1     27.2116520     23  2.500                                             
     3     -1.3605826     23  2.500                                             
  local pseudopotential read in
  partial core-charges read in
  partial kinetic energy density read in
  atomic valenz-charges read in
  non local Contribution for L=           2  read in
    real space projection operators read in
  non local Contribution for L=           2  read in
    real space projection operators read in
  non local Contribution for L=           0  read in
    real space projection operators read in
  non local Contribution for L=           0  read in
    real space projection operators read in
  non local Contribution for L=           1  read in
    real space projection operators read in
  non local Contribution for L=           1  read in
    real space projection operators read in
    PAW grid and wavefunctions read in
 
   number of l-projection  operators is LMAX  =           6
   number of lm-projection operators is LMMAX =          18
 
 POTCAR:    PAW_PBE C 08Apr2002                   
   VRHFIN =C: s2p2                                                              
   LEXCH  = PE                                                                  
   EATOM  =   147.1560 eV,   10.8157 Ry                                         
                                                                                
   TITEL  = PAW_PBE C 08Apr2002                                                 
   LULTRA =        F    use ultrasoft PP ?                                      
   IUNSCR =        1    unscreen: 0-lin 1-nonlin 2-no                           
   RPACOR =    1.200    partial core radius                                     
   POMASS =   12.011; ZVAL   =    4.000    mass and valenz                      
   RCORE  =    1.500    outmost cutoff radius                                   
   RWIGS  =    1.630; RWIGS  =    0.863    wigner-seitz radius (au A)           
   ENMAX  =  400.000; ENMIN  =  300.000 eV                                      
   ICORE  =        2    local potential                                         
   LCOR   =        T    correct aug charges                                     
   LPAW   =        T    paw PP                                                  
   EAUG   =  644.873                                                            
   DEXC   =    0.000                                                            
   RMAX   =    1.529    core radius for proj-oper                               
   RAUG   =    1.300    factor for augmentation sphere                          
   RDEP   =    1.501    radius for radial grids                                 
   RDEPT  =    1.300    core radius for aug-charge                              
                                                                                
   Atomic configuration                                                         
    4 entries                                                                   
     n  l   j            E        occ.                                          
     1  0  0.50      -273.3789   2.0000                                         
     2  0  0.50       -13.7508   2.0000                                         
     2  1  0.50        -5.2854   2.0000                                         
     3  2  1.50        -5.4423   0.0000                                         
   Description                                                                  
     l       E           TYP  RCUT    TYP  RCUT                                 
     0    -13.7508458     23  1.200                                             
     0     -8.2022199     23  1.200                                             
     1     -5.2854383     23  1.500                                             
     1     34.0145650     23  1.500                                             
     2     -5.4423304      7  1.500                                             
  local pseudopotential read in
  partial core-charges read in
  partial kinetic energy density read in
  atomic valenz-charges read in
  non local Contribution for L=           0  read in
    real space projection operators read in
  non local Contribution for L=           0  read in
    real space projection operators read in
  non local Contribution for L=           1  read in
    real space projection operators read in
  non local Contribution for L=           1  read in
    real space projection operators read in
    PAW grid and wavefunctions read in
 
   number of l-projection  operators is LMAX  =           4
   number of lm-projection operators is LMMAX =           8
 
 POTCAR:    PAW_PBE H 15Jun2001                   
   VRHFIN =H: ultrasoft test                                                    
   LEXCH  = PE                                                                  
   EATOM  =    12.4884 eV,    0.9179 Ry                                         
                                                                                
   TITEL  = PAW_PBE H 15Jun2001                                                 
   LULTRA =        F    use ultrasoft PP ?                                      
   IUNSCR =        0    unscreen: 0-lin 1-nonlin 2-no                           
   RPACOR =    0.000    partial core radius                                     
   POMASS =    1.000; ZVAL   =    1.000    mass and valenz                      
   RCORE  =    1.100    outmost cutoff radius                                   
   RWIGS  =    0.700; RWIGS  =    0.370    wigner-seitz radius (au A)           
   ENMAX  =  250.000; ENMIN  =  200.000 eV                                      
   RCLOC  =    0.701    cutoff for local pot                                    
   LCOR   =        T    correct aug charges                                     
   LPAW   =        T    paw PP                                                  
   EAUG   =  400.000                                                            
   RMAX   =    1.123    core radius for proj-oper                               
   RAUG   =    1.200    factor for augmentation sphere                          
   RDEP   =    1.112    radius for radial grids                                 
   RDEPT  =    0.926    core radius for aug-charge                              
                                                                                
   Atomic configuration                                                         
    2 entries                                                                   
     n  l   j            E        occ.                                          
     1  0  0.50        -6.4927   1.0000                                         
     2  1  0.50        -3.4015   0.0000                                         
   Description                                                                  
     l       E           TYP  RCUT    TYP  RCUT                                 
     0     -6.4927494     23  1.100                                             
     0      6.8029130     23  1.100                                             
     1     -4.0817478     23  1.100                                             
  local pseudopotential read in
  atomic valenz-charges read in
  non local Contribution for L=           0  read in
    real space projection operators read in
  non local Contribution for L=           0  read in
    real space projection operators read in
  non local Contribution for L=           1  read in
    real space projection operators read in
    PAW grid and wavefunctions read in
 
   number of l-projection  operators is LMAX  =           3
   number of lm-projection operators is LMMAX =           5
 
 POTCAR:    PAW_PBE Ir 06Sep2000                  
   VRHFIN =Ir: s1d8                                                             
   LEXCH  = PE                                                                  
   EATOM  =   560.1833 eV,   41.1723 Ry                                         
                                                                                
   TITEL  = PAW_PBE Ir 06Sep2000                                                
   LULTRA =        F    use ultrasoft PP ?                                      
   IUNSCR =        1    unscreen: 0-lin 1-nonlin 2-no                           
   RPACOR =    2.250    partial core radius                                     
   POMASS =  192.220; ZVAL   =    9.000    mass and valenz                      
   RCORE  =    2.600    outmost cutoff radius                                   
   RWIGS  =    2.690; RWIGS  =    1.423    wigner-seitz radius (au A)           
   ENMAX  =  210.864; ENMIN  =  158.148 eV                                      
   RCLOC  =    1.857    cutoff for local pot                                    
   LCOR   =        T    correct aug charges                                     
   LPAW   =        T    paw PP                                                  
   EAUG   =  318.962                                                            
   DEXC   =    0.000                                                            
   RMAX   =    2.667    core radius for proj-oper                               
   RAUG   =    1.300    factor for augmentation sphere                          
   RDEP   =    2.748    radius for radial grids                                 
   RDEPT  =    2.300    core radius for aug-charge                              
                                                                                
   Atomic configuration                                                         
   16 entries                                                                   
     n  l   j            E        occ.                                          
     1  0  0.50    -76100.0449   2.0000                                         
     2  0  0.50    -13308.1683   2.0000                                         
     2  1  1.50    -11558.0021   6.0000                                         
     3  0  0.50     -3110.7274   2.0000                                         
     3  1  1.50     -2599.2109   6.0000                                         
     3  2  2.50     -2037.1515  10.0000                                         
     4  0  0.50      -661.6001   2.0000                                         
     4  1  1.50      -493.8981   6.0000                                         
     4  2  2.50      -288.1909  10.0000                                         
     4  3  3.50       -59.5718  14.0000                                         
     5  0  0.50       -95.3879   2.0000                                         
     5  1  1.50       -52.2747   6.0000                                         
     5  2  2.50        -5.4180   8.0000                                         
     6  0  0.50        -5.5479   1.0000                                         
     6  1  1.50        -6.8029   0.0000                                         
     5  3  2.50        -1.3606   0.0000                                         
   Description                                                                  
     l       E           TYP  RCUT    TYP  RCUT                                 
     2     -5.4179967     23  2.600                                             
     2     -6.7785793     23  2.600                                             
     0     -5.5478636     23  2.600                                             
     0      2.2542272     23  2.600                                             
     1     -2.7211652     23  2.600                                             
     1     20.4087390     23  2.600                                             
  local pseudopotential read in
  partial core-charges read in
  partial kinetic energy density read in
  atomic valenz-charges read in
  non local Contribution for L=           2  read in
    real space projection operators read in
  non local Contribution for L=           2  read in
    real space projection operators read in
  non local Contribution for L=           0  read in
    real space projection operators read in
  non local Contribution for L=           0  read in
    real space projection operators read in
  non local Contribution for L=           1  read in
    real space projection operators read in
  non local Contribution for L=           1  read in
    real space projection operators read in
    PAW grid and wavefunctions read in
 
   number of l-projection  operators is LMAX  =           6
   number of lm-projection operators is LMMAX =          18
 
 POTCAR:    PAW_PBE Pt 04Feb2005                  
   VRHFIN =Pt: s1d9                                                             
   LEXCH  = PE                                                                  
   EATOM  =   729.1176 eV,   53.5886 Ry                                         
                                                                                
   TITEL  = PAW_PBE Pt 04Feb2005                                                
   LULTRA =        F    use ultrasoft PP ?                                      
   IUNSCR =        1    unscreen: 0-lin 1-nonlin 2-no                           
   RPACOR =    2.330    partial core radius                                     
   POMASS =  195.080; ZVAL   =   10.000    mass and valenz                      
   RCORE  =    2.600    outmost cutoff radius                                   
   RWIGS  =    2.750; RWIGS  =    1.455    wigner-seitz radius (au A)           
   ENMAX  =  230.283; ENMIN  =  172.712 eV                                      
   ICORE  =        3    local potential                                         
   LCOR   =        T    correct aug charges                                     
   LPAW   =        T    paw PP                                                  
   EAUG   =  358.966                                                            
   DEXC   =    0.000                                                            
   RMAX   =    2.658    core radius for proj-oper                               
   RAUG   =    1.300    factor for augmentation sphere                          
   RDEP   =    2.761    radius for radial grids                                 
   RDEPT  =    2.203    core radius for aug-charge                              
                                                                                
   Atomic configuration                                                         
   16 entries                                                                   
     n  l   j            E        occ.                                          
     1  0  0.50    -78401.1885   2.0000                                         
     2  0  0.50    -13770.7750   2.0000                                         
     2  1  1.50    -11931.0468   6.0000                                         
     3  0  0.50     -3234.7234   2.0000                                         
     3  1  1.50     -2699.2216   6.0000                                         
     3  2  2.50     -2119.5714  10.0000                                         
     4  0  0.50      -695.1528   2.0000                                         
     4  1  1.50      -519.6034   6.0000                                         
     4  2  2.50      -306.6786  10.0000                                         
     4  3  3.50       -70.1041  14.0000                                         
     5  0  0.50      -101.7747   2.0000                                         
     5  1  1.50       -55.9873   6.0000                                         
     5  2  2.50        -6.1423   9.0000                                         
     6  0  0.50        -5.6573   1.0000                                         
     6  1  1.50        -6.8029   0.0000                                         
     5  3  2.50        -1.3606   0.0000                                         
   Description                                                                  
     l       E           TYP  RCUT    TYP  RCUT                                 
     2     -6.1423404     23  2.500                                             
     2     -7.5029230     23  2.500                                             
     0     -5.6573207     23  2.500                                             
     0      0.7416693     23  2.500                                             
     1     -2.7211652     23  2.600                                             
     1     20.4087390     23  2.600                                             
     3     -1.3605826     23  2.500                                             
  local pseudopotential read in
  partial core-charges read in
  partial kinetic energy density read in
  atomic valenz-charges read in
  non local Contribution for L=           2  read in
    real space projection operators read in
  non local Contribution for L=           2  read in
    real space projection operators read in
  non local Contribution for L=           0  read in
    real space projection operators read in
  non local Contribution for L=           0  read in
    real space projection operators read in
  non local Contribution for L=           1  read in
    real space projection operators read in
  non local Contribution for L=           1  read in
    real space projection operators read in
    PAW grid and wavefunctions read in
 
   number of l-projection  operators is LMAX  =           6
   number of lm-projection operators is LMMAX =          18
 
 Optimization of the real space projectors (new method)

 maximal supplied QI-value         = 15.12
 optimisation between [QCUT,QGAM] = [  9.52, 19.05] = [ 25.40,101.61] Ry 
 Optimized for a Real-space Cutoff    1.57 Angstroem

   l    n(q)    QCUT    max X(q) W(low)/X(q) W(high)/X(q)  e(spline) 
   2      8     9.524    60.898    0.38E-03    0.43E-04    0.84E-07
   2      8     9.524    58.894    0.38E-03    0.47E-04    0.88E-07
   0      9     9.524   109.617    0.60E-04    0.64E-04    0.80E-07
   0      9     9.524    75.026    0.59E-04    0.62E-04    0.78E-07
   1      8     9.524    16.344    0.99E-04    0.18E-03    0.87E-07
   1      8     9.524    10.160    0.78E-04    0.15E-03    0.74E-07
 Optimization of the real space projectors (new method)

 maximal supplied QI-value         = 25.13
 optimisation between [QCUT,QGAM] = [  9.55, 19.10] = [ 25.54,102.17] Ry 
 Optimized for a Real-space Cutoff    1.39 Angstroem

   l    n(q)    QCUT    max X(q) W(low)/X(q) W(high)/X(q)  e(spline) 
   0      8     9.551   115.676    0.39E-03    0.54E-03    0.29E-06
   0      8     9.551    87.132    0.39E-03    0.54E-03    0.28E-06
   1      7     9.551     4.429    0.35E-03    0.51E-04    0.29E-06
   1      7     9.551     2.733    0.22E-03    0.42E-04    0.31E-06
 Optimization of the real space projectors (new method)

 maximal supplied QI-value         = 34.20
 optimisation between [QCUT,QGAM] = [  9.58, 19.15] = [ 25.68,102.74] Ry 
 Optimized for a Real-space Cutoff    1.31 Angstroem

   l    n(q)    QCUT    max X(q) W(low)/X(q) W(high)/X(q)  e(spline) 
   0      7     9.577    19.460    0.33E-03    0.12E-03    0.35E-06
   0      7     9.577    12.209    0.33E-03    0.11E-03    0.33E-06
   1      7     9.577     4.655    0.39E-03    0.14E-02    0.33E-06
 Optimization of the real space projectors (new method)

 maximal supplied QI-value         = 14.36
 optimisation between [QCUT,QGAM] = [  9.48, 19.10] = [ 25.16,102.17] Ry 
 Optimized for a Real-space Cutoff    1.57 Angstroem

   l    n(q)    QCUT    max X(q) W(low)/X(q) W(high)/X(q)  e(spline) 
   2      8     9.479   134.116    0.18E-03    0.75E-03    0.26E-06
   2      8     9.479   130.192    0.18E-03    0.75E-03    0.27E-06
   0      9     9.479    60.310    0.39E-03    0.24E-03    0.63E-07
   0      9     9.479    39.218    0.36E-03    0.22E-03    0.59E-07
   1      8     9.479    18.439    0.20E-03    0.15E-03    0.16E-06
   1      8     9.479    12.760    0.16E-03    0.11E-03    0.13E-06
 Optimization of the real space projectors (new method)

 maximal supplied QI-value         = 14.36
 optimisation between [QCUT,QGAM] = [  9.48, 19.10] = [ 25.16,102.17] Ry 
 Optimized for a Real-space Cutoff    1.57 Angstroem

   l    n(q)    QCUT    max X(q) W(low)/X(q) W(high)/X(q)  e(spline) 
   2      8     9.479    66.195    0.35E-03    0.53E-04    0.87E-07
   2      8     9.479    64.643    0.35E-03    0.57E-04    0.91E-07
   0      9     9.479    95.520    0.50E-04    0.62E-04    0.81E-07
   0      9     9.479    63.403    0.49E-04    0.60E-04    0.78E-07
   1      8     9.479    19.961    0.10E-03    0.87E-04    0.11E-06
   1      8     9.479    13.289    0.88E-04    0.71E-04    0.97E-07
  PAW_PBE Au 04Oct2007                  :
 energy of atom  1       EATOM= -926.0867
 kinetic energy error for atom=    0.0152 (will be added to EATOM!!)
  PAW_PBE C 08Apr2002                   :
 energy of atom  2       EATOM= -147.1560
 kinetic energy error for atom=    0.0854 (will be added to EATOM!!)
  PAW_PBE H 15Jun2001                   :
 energy of atom  3       EATOM=  -12.4884
 kinetic energy error for atom=    0.0203 (will be added to EATOM!!)
  PAW_PBE Ir 06Sep2000                  :
 energy of atom  4       EATOM= -560.1833
 kinetic energy error for atom=    0.0056 (will be added to EATOM!!)
  PAW_PBE Pt 04Feb2005                  :
 energy of atom  5       EATOM= -729.1176
 kinetic energy error for atom=    0.0144 (will be added to EATOM!!)
 
 
 POSCAR: Au  C  H Ir Pt                          
  positions in cartesian coordinates
  No initial velocities read in
 exchange correlation table for  LEXCH =        8
   RHO(1)=    0.500       N(1)  =     2000
   RHO(2)=  100.500       N(2)  =     4000
 


--------------------------------------------------------------------------------------------------------


 ion  position               nearest neighbor table
   1  0.505  0.502  0.619-   8 2.76   9 2.77  11 2.78  13 2.78   9 2.79  20 2.79  10 2.79   8 2.80
                            10 2.82
   2  0.997  0.982  0.699-   5 1.10   6 1.10   4 1.10  10 2.09
   3  0.046  0.260  0.656-   8 1.69  10 1.79
   4  0.877  0.193  0.712-   2 1.10
   5  0.898  0.860  0.707-   2 1.10
   6  0.213  0.882  0.710-   2 1.10
   7  0.500  0.005  0.394-  19 2.77  12 2.77  18 2.78  18 2.78  12 2.78  19 2.79  14 2.82  16 2.83
                            17 2.83
   8  0.006  0.506  0.620-   3 1.69  10 2.73   9 2.75   1 2.76   1 2.80  21 2.80   9 2.81  13 2.83
                            20 2.84  10 2.86
   9  0.510  0.998  0.619-   8 2.75  21 2.76  10 2.76  11 2.77   1 2.77   1 2.79   8 2.81  20 2.82
                            10 2.84
  10  0.003  0.996  0.631-   3 1.79   2 2.09   8 2.73   9 2.76   1 2.79   1 2.82   9 2.84   8 2.86
                            21 3.04  11 3.07  13 3.10
  11  0.335  0.839  0.546-  21 2.74  13 2.75   9 2.77  20 2.78   1 2.78  20 2.78  13 2.81  15 2.81
                            21 2.81  17 2.81  14 2.84  10 3.07
  12  0.002  0.004  0.395-  18 2.77   7 2.77  19 2.78  19 2.78   7 2.78  18 2.79  16 2.81  15 2.83
                            17 2.84
  13  0.840  0.335  0.545-  11 2.75  21 2.75  20 2.78   1 2.78  20 2.78  17 2.80  21 2.81  11 2.81
                             8 2.83  16 2.83  14 2.84  10 3.10
  14  0.670  0.672  0.470-  16 2.78  15 2.78  17 2.78  17 2.78  16 2.78  15 2.78  19 2.82   7 2.82
                            11 2.84  18 2.84  13 2.84  21 2.86
  15  0.169  0.672  0.471-  14 2.78  17 2.78  16 2.78  16 2.78  17 2.78  14 2.78  20 2.79  21 2.80
                            11 2.81  12 2.83  18 2.84  19 2.85
  16  0.669  0.173  0.470-  14 2.78  17 2.78  15 2.78  15 2.78  17 2.78  14 2.78  20 2.79  12 2.81
                            13 2.83  18 2.83   7 2.83  21 2.84
  17  0.170  0.172  0.470-  15 2.78  16 2.78  14 2.78  15 2.78  14 2.78  16 2.78  20 2.79  13 2.80
                            11 2.81   7 2.83  19 2.84  12 2.84
  18  0.499  0.505  0.394-  19 2.77  12 2.77   7 2.78   7 2.78  12 2.79  19 2.79  16 2.83  14 2.84
                            15 2.84
  19  0.002  0.504  0.394-  18 2.77   7 2.77  12 2.78  12 2.78   7 2.79  18 2.79  14 2.82  17 2.84
                            15 2.85
  20  0.339  0.337  0.544-  13 2.78  11 2.78  21 2.78  21 2.78  13 2.78  11 2.78  17 2.79  15 2.79
                             1 2.79  16 2.79   9 2.82   8 2.84
  21  0.842  0.839  0.546-  11 2.74  13 2.75   9 2.76  20 2.78  20 2.78   8 2.80  15 2.80  13 2.81
                            11 2.81  16 2.84  14 2.86  10 3.04
 
  LATTYP: Found a hexagonal cell.
 ALAT       =     5.5578593001
 C/A-ratio  =     5.5429542221
  
  Lattice vectors:
  
 A1 = (   2.7789296501,  -4.8132473446,   0.0000000000)
 A2 = (  -5.5578593001,   0.0000000000,   0.0000000000)
 A3 = (   0.0000000000,   0.0000000000, -30.8069596737)


Analysis of symmetry for initial positions (statically):
=====================================================================
 Subroutine PRICEL returns:
 Original cell was already a primitive cell.
 

 Routine SETGRP: Setting up the symmetry group for a 
 hexagonal supercell.


 Subroutine GETGRP returns: Found  1 space group operations
 (whereof  1 operations were pure point group operations)
 out of a pool of 24 trial point group operations.


The static configuration has the point symmetry C_1 .


Analysis of symmetry for dynamics (positions and initial velocities):
=====================================================================
 Subroutine PRICEL returns:
 Original cell was already a primitive cell.
 

 Routine SETGRP: Setting up the symmetry group for a 
 hexagonal supercell.


 Subroutine GETGRP returns: Found  1 space group operations
 (whereof  1 operations were pure point group operations)
 out of a pool of 24 trial point group operations.


The dynamic configuration has the point symmetry C_1 .


 Subroutine INISYM returns: Found  1 space group operations
 (whereof  1 operations are pure point group operations),
 and found     1 'primitive' translations

 
 
 KPOINTS: 0.2.Ir1.Au15                            

Automatic generation of k-mesh.
Space group operators:
 irot       det(A)        alpha          n_x          n_y          n_z        tau_x        tau_y        tau_z
    1     1.000000     0.000001     1.000000     0.000000     0.000000     0.000000     0.000000     0.000000
 
 Subroutine IBZKPT returns following result:
 ===========================================
 
 Found     96 irreducible k-points:
 
 Following reciprocal coordinates:
            Coordinates               Weight
  0.062500  0.062500  0.000000     16.000000
  0.000000  0.062500  0.000000     16.000000
 -0.062500  0.000000  0.000000     16.000000
  0.187500  0.062500  0.000000     16.000000
  0.125000  0.187500  0.000000     16.000000
 -0.062500  0.125000  0.000000     16.000000
  0.125000 -0.062500  0.000000     16.000000
 -0.062500 -0.187500  0.000000     16.000000
 -0.187500 -0.125000  0.000000     16.000000
  0.312500  0.062500  0.000000     16.000000
  0.250000  0.312500  0.000000     16.000000
 -0.062500  0.250000  0.000000     16.000000
  0.250000 -0.062500  0.000000     16.000000
 -0.062500 -0.312500  0.000000     16.000000
 -0.312500 -0.250000  0.000000     16.000000
  0.437500  0.062500  0.000000     16.000000
  0.375000  0.437500  0.000000     16.000000
 -0.062500  0.375000  0.000000     16.000000
  0.375000 -0.062500  0.000000     16.000000
 -0.062500 -0.437500  0.000000     16.000000
 -0.437500 -0.375000  0.000000     16.000000
 -0.437500  0.062500  0.000000     16.000000
  0.500000 -0.437500  0.000000     16.000000
 -0.062500  0.500000  0.000000     16.000000
  0.500000 -0.062500  0.000000     16.000000
 -0.062500  0.437500  0.000000     16.000000
  0.437500  0.500000  0.000000     16.000000
 -0.312500  0.062500  0.000000     16.000000
 -0.375000 -0.312500  0.000000     16.000000
 -0.062500 -0.375000  0.000000     16.000000
 -0.375000 -0.062500  0.000000     16.000000
 -0.062500  0.312500  0.000000     16.000000
  0.312500  0.375000  0.000000     16.000000
 -0.187500  0.062500  0.000000     16.000000
 -0.250000 -0.187500  0.000000     16.000000
 -0.062500 -0.250000  0.000000     16.000000
 -0.250000 -0.062500  0.000000     16.000000
 -0.062500  0.187500  0.000000     16.000000
  0.187500  0.250000  0.000000     16.000000
 -0.062500  0.062500  0.000000     16.000000
 -0.125000 -0.062500  0.000000     16.000000
 -0.062500 -0.125000  0.000000     16.000000
  0.187500  0.187500  0.000000     16.000000
  0.000000  0.187500  0.000000     16.000000
 -0.187500  0.000000  0.000000     16.000000
  0.312500  0.187500  0.000000     16.000000
  0.125000  0.312500  0.000000     16.000000
 -0.187500  0.125000  0.000000     16.000000
  0.125000 -0.187500  0.000000     16.000000
 -0.187500 -0.312500  0.000000     16.000000
 -0.312500 -0.125000  0.000000     16.000000
  0.437500  0.187500  0.000000     16.000000
  0.250000  0.437500  0.000000     16.000000
 -0.187500  0.250000  0.000000     16.000000
  0.250000 -0.187500  0.000000     16.000000
 -0.187500 -0.437500  0.000000     16.000000
 -0.437500 -0.250000  0.000000     16.000000
 -0.437500  0.187500  0.000000     16.000000
  0.375000 -0.437500  0.000000     16.000000
 -0.187500  0.375000  0.000000     16.000000
  0.375000 -0.187500  0.000000     16.000000
 -0.187500  0.437500  0.000000     16.000000
  0.437500 -0.375000  0.000000     16.000000
 -0.312500  0.187500  0.000000     16.000000
  0.500000 -0.312500  0.000000     16.000000
 -0.187500  0.500000  0.000000     16.000000
  0.500000 -0.187500  0.000000     16.000000
 -0.187500  0.312500  0.000000     16.000000
  0.312500  0.500000  0.000000     16.000000
 -0.187500  0.187500  0.000000     16.000000
 -0.375000 -0.187500  0.000000     16.000000
 -0.187500 -0.375000  0.000000     16.000000
  0.312500  0.312500  0.000000     16.000000
  0.000000  0.312500  0.000000     16.000000
 -0.312500  0.000000  0.000000     16.000000
  0.437500  0.312500  0.000000     16.000000
  0.125000  0.437500  0.000000     16.000000
 -0.312500  0.125000  0.000000     16.000000
  0.125000 -0.312500  0.000000     16.000000
 -0.312500 -0.437500  0.000000     16.000000
 -0.437500 -0.125000  0.000000     16.000000
 -0.437500  0.312500  0.000000     16.000000
  0.250000 -0.437500  0.000000     16.000000
 -0.312500  0.250000  0.000000     16.000000
  0.250000 -0.312500  0.000000     16.000000
 -0.312500  0.437500  0.000000     16.000000
  0.437500 -0.250000  0.000000     16.000000
 -0.312500  0.312500  0.000000     16.000000
  0.375000 -0.312500  0.000000     16.000000
 -0.312500  0.375000  0.000000     16.000000
  0.437500  0.437500  0.000000     16.000000
  0.000000  0.437500  0.000000     16.000000
 -0.437500 -0.000000  0.000000     16.000000
 -0.437500  0.437500  0.000000     16.000000
  0.125000 -0.437500  0.000000     16.000000
 -0.437500  0.125000  0.000000     16.000000
 
 Following cartesian coordinates:
            Coordinates               Weight
  0.011245  0.006492  0.000000     16.000000
  0.000000  0.012985  0.000000     16.000000
 -0.011245  0.006492  0.000000     16.000000
  0.033736 -0.006492  0.000000     16.000000
  0.022491  0.025970  0.000000     16.000000
 -0.011245  0.032462  0.000000     16.000000
  0.022491 -0.025970  0.000000     16.000000
 -0.011245 -0.032462  0.000000     16.000000
 -0.033736 -0.006492  0.000000     16.000000
  0.056227 -0.019477  0.000000     16.000000
  0.044981  0.038955  0.000000     16.000000
 -0.011245  0.058432  0.000000     16.000000
  0.044981 -0.038955  0.000000     16.000000
 -0.011245 -0.058432  0.000000     16.000000
 -0.056227 -0.019477  0.000000     16.000000
  0.078717 -0.032462  0.000000     16.000000
  0.067472  0.051940  0.000000     16.000000
 -0.011245  0.084402  0.000000     16.000000
  0.067472 -0.051940  0.000000     16.000000
 -0.011245 -0.084402  0.000000     16.000000
 -0.078717 -0.032462  0.000000     16.000000
 -0.078717  0.058432  0.000000     16.000000
  0.089963 -0.142835  0.000000     16.000000
 -0.011245  0.110372  0.000000     16.000000
  0.089963 -0.064925  0.000000     16.000000
 -0.011245  0.097387  0.000000     16.000000
  0.078717  0.058432  0.000000     16.000000
 -0.056227  0.045447  0.000000     16.000000
 -0.067472 -0.025970  0.000000     16.000000
 -0.011245 -0.071417  0.000000     16.000000
 -0.067472  0.025970  0.000000     16.000000
 -0.011245  0.071417  0.000000     16.000000
  0.056227  0.045447  0.000000     16.000000
 -0.033736  0.032462  0.000000     16.000000
 -0.044981 -0.012985  0.000000     16.000000
 -0.011245 -0.045447  0.000000     16.000000
 -0.044981  0.012985  0.000000     16.000000
 -0.011245  0.045447  0.000000     16.000000
  0.033736  0.032462  0.000000     16.000000
 -0.011245  0.019477  0.000000     16.000000
 -0.022491  0.000000  0.000000     16.000000
 -0.011245 -0.019477  0.000000     16.000000
  0.033736  0.019477  0.000000     16.000000
  0.000000  0.038955  0.000000     16.000000
 -0.033736  0.019477  0.000000     16.000000
  0.056227  0.006492  0.000000     16.000000
  0.022491  0.051940  0.000000     16.000000
 -0.033736  0.045447  0.000000     16.000000
  0.022491 -0.051940  0.000000     16.000000
 -0.033736 -0.045447  0.000000     16.000000
 -0.056227  0.006492  0.000000     16.000000
  0.078717 -0.006492  0.000000     16.000000
  0.044981  0.064925  0.000000     16.000000
 -0.033736  0.071417  0.000000     16.000000
  0.044981 -0.064925  0.000000     16.000000
 -0.033736 -0.071417  0.000000     16.000000
 -0.078717 -0.006492  0.000000     16.000000
 -0.078717  0.084402  0.000000     16.000000
  0.067472 -0.129850  0.000000     16.000000
 -0.033736  0.097387  0.000000     16.000000
  0.067472 -0.077910  0.000000     16.000000
 -0.033736  0.110372  0.000000     16.000000
  0.078717 -0.123357  0.000000     16.000000
 -0.056227  0.071417  0.000000     16.000000
  0.089963 -0.116865  0.000000     16.000000
 -0.033736  0.123357  0.000000     16.000000
  0.089963 -0.090895  0.000000     16.000000
 -0.033736  0.084402  0.000000     16.000000
  0.056227  0.071417  0.000000     16.000000
 -0.033736  0.058432  0.000000     16.000000
 -0.067472  0.000000  0.000000     16.000000
 -0.033736 -0.058432  0.000000     16.000000
  0.056227  0.032462  0.000000     16.000000
  0.000000  0.064925  0.000000     16.000000
 -0.056227  0.032462  0.000000     16.000000
  0.078717  0.019477  0.000000     16.000000
  0.022491  0.077910  0.000000     16.000000
 -0.056227  0.058432  0.000000     16.000000
  0.022491 -0.077910  0.000000     16.000000
 -0.056227 -0.058432  0.000000     16.000000
 -0.078717  0.019477  0.000000     16.000000
 -0.078717  0.110372  0.000000     16.000000
  0.044981 -0.116865  0.000000     16.000000
 -0.056227  0.084402  0.000000     16.000000
  0.044981 -0.090895  0.000000     16.000000
 -0.056227  0.123357  0.000000     16.000000
  0.078717 -0.097387  0.000000     16.000000
 -0.056227  0.097387  0.000000     16.000000
  0.067472 -0.103880  0.000000     16.000000
 -0.056227  0.110372  0.000000     16.000000
  0.078717  0.045447  0.000000     16.000000
  0.000000  0.090895  0.000000     16.000000
 -0.078717  0.045447  0.000000     16.000000
 -0.078717  0.136342  0.000000     16.000000
  0.022491 -0.103880  0.000000     16.000000
 -0.078717  0.071417  0.000000     16.000000
 


--------------------------------------------------------------------------------------------------------




 Dimension of arrays:
   k-points           NKPTS =     96   k-points in BZ     NKDIM =     96   number of bands    NBANDS=    100
   number of dos      NEDOS =    301   number of ions     NIONS =     21
   non local maximal  LDIM  =      6   non local SUM 2l+1 LMDIM =     18
   total plane-waves  NPLWV = 112896
   max r-space proj   IRMAX =   2252   max aug-charges    IRDMAX=  10104
   dimension x,y,z NGX =    28 NGY =   28 NGZ =  144
   dimension x,y,z NGXF=    56 NGYF=   56 NGZF=  288
   support grid    NGXF=    56 NGYF=   56 NGZF=  288
   ions per type =               1   1   4   1  14
   NGX,Y,Z   is equivalent  to a cutoff of   8.38,  8.38,  7.77 a.u.
   NGXF,Y,Z  is equivalent  to a cutoff of  16.75, 16.75, 15.54 a.u.

 SYSTEM =  0.2.Ir1.Au15                            
 POSCAR =  Au  C  H Ir Pt                          

 Startparameter for this run:
   NWRITE =      2    write-flag & timer
   PREC   = normal    normal or accurate (medium, high low for compatibility)
   ISTART =      0    job   : 0-new  1-cont  2-samecut
   ICHARG =      2    charge: 1-file 2-atom 10-const
   ISPIN  =      1    spin polarized calculation?
   LNONCOLLINEAR =      F non collinear calculations
   LSORBIT =      F    spin-orbit coupling
   INIWAV =      1    electr: 0-lowe 1-rand  2-diag
   LASPH  =      F    aspherical Exc in radial PAW
   METAGGA=      F    non-selfconsistent MetaGGA calc.

 Electronic Relaxation 1
   ENCUT  =  350.0 eV  25.72 Ry    5.07 a.u.   8.48  8.48 46.99*2*pi/ulx,y,z
   ENINI  =  350.0     initial cutoff
   ENAUG  =  644.9 eV  augmentation charge cutoff
   NELM   =   1000;   NELMIN=  5; NELMDL= -5     # of ELM steps 
   EDIFF  = 0.1E-04   stopping-criterion for ELM
   LREAL  =      T    real-space projection
   NLSPLINE    = F    spline interpolate recip. space projectors
   LCOMPAT=      F    compatible to vasp.4.4
   GGA_COMPAT  = T    GGA compatible to vasp.4.4-vasp.4.6
   LMAXPAW     = -100 max onsite density
   LMAXMIX     =    2 max onsite mixed and CHGCAR
   VOSKOWN=      0    Vosko Wilk Nusair interpolation
   ROPT   =   -0.00050  -0.00050  -0.00050  -0.00050
   ROPT   =   -0.00050
 Ionic relaxation
   EDIFFG = 0.1E-03   stopping-criterion for IOM
   NSW    =      0    number of steps for IOM
   NBLOCK =      1;   KBLOCK =      1    inner block; outer block 
   IBRION =     -1    ionic relax: 0-MD 1-quasi-New 2-CG
   NFREE  =      0    steps in history (QN), initial steepest desc. (CG)
   ISIF   =      2    stress and relaxation
   IWAVPR =     10    prediction:  0-non 1-charg 2-wave 3-comb
   ISYM   =      2    0-nonsym 1-usesym 2-fastsym
   LCORR  =      T    Harris-Foulkes like correction to forces

   POTIM  = 0.5000    time-step for ionic-motion
   TEIN   =    0.0    initial temperature
   TEBEG  =    0.0;   TEEND  =   0.0 temperature during run
   SMASS  =  -3.00    Nose mass-parameter (am)
   estimated Nose-frequenzy (Omega)   =  0.10E-29 period in steps =****** mass=  -0.706E-27a.u.
   SCALEE = 1.0000    scale energy and forces
   NPACO  =    256;   APACO  = 16.0  distance and # of slots for P.C.
   PSTRESS=    0.0 pullay stress

  Mass of Ions in am
   POMASS = 196.97 12.01  1.00192.22195.08
  Ionic Valenz
   ZVAL   =  11.00  4.00  1.00  9.00 10.00
  Atomic Wigner-Seitz radii
   RWIGS  =  -1.00 -1.00 -1.00 -1.00 -1.00
  virtual crystal weights 
   VCA    =   1.00  1.00  1.00  1.00  1.00
   NELECT =     168.0000    total number of electrons
   NUPDOWN=      -1.0000    fix difference up-down

 DOS related values:
   EMIN   =  10.00;   EMAX   =-10.00  energy-range for DOS
   EFERMI =   0.00
   ISMEAR =     1;   SIGMA  =   0.20  broadening in eV -4-tet -1-fermi 0-gaus

 Electronic relaxation 2 (details)
   IALGO  =     38    algorithm
   LDIAG  =      T    sub-space diagonalisation (order eigenvalues)
   LSUBROT=      F    optimize rotation matrix (better conditioning)
   TURBO    =      0    0=normal 1=particle mesh
   IRESTART =      0    0=no restart 2=restart with 2 vectors
   NREBOOT  =      0    no. of reboots
   NMIN     =      0    reboot dimension
   EREF     =   0.00    reference energy to select bands
   IMIX   =      4    mixing-type and parameters
     AMIX     =   0.40;   BMIX     =  1.00
     AMIX_MAG =   1.60;   BMIX_MAG =  1.00
     AMIN     =   0.10
     WC   =   100.;   INIMIX=   1;  MIXPRE=   1;  MAXMIX= -45

 Intra band minimization:
   WEIMIN = 0.0000     energy-eigenvalue tresh-hold
   EBREAK =  0.25E-07  absolut break condition
   DEPER  =   0.30     relativ break condition  

   TIME   =   0.40     timestep for ELM

  volume/ion in A,a.u.               =      39.24       264.83
  Fermi-wavevector in a.u.,A,eV,Ry     =   0.963488  1.820729 12.630418  0.928310
  Thomas-Fermi vector in A             =   2.093038
 
 Write flags
   LWAVE        =      F    write WAVECAR
   LDOWNSAMPLE  =      F    k-point downsampling of WAVECAR
   LCHARG       =      F    write CHGCAR
   LVTOT        =      F    write LOCPOT, total local potential
   LVHAR        =      F    write LOCPOT, Hartree potential only
   LELF         =      F    write electronic localiz. function (ELF)
   LORBIT       =      0    0 simple, 1 ext, 2 COOP (PROOUT), +10 PAW based schemes


 Dipole corrections
   LMONO  =      F    monopole corrections only (constant potential shift)
   LDIPOL =      F    correct potential (dipole corrections)
   IDIPOL =      3    1-x, 2-y, 3-z, 4-all directions 
   EPSILON=  1.0000000 bulk dielectric constant

 Exchange correlation treatment:
   GGA     =    --    GGA type
   LEXCH   =     8    internal setting for exchange type
   VOSKOWN=      0    Vosko Wilk Nusair interpolation
   LHFCALC =     F    Hartree Fock is set to
   LHFONE  =     F    Hartree Fock one center treatment
   AEXX    =    0.0000 exact exchange contribution

 Linear response parameters
   LEPSILON=     F    determine dielectric tensor
   LRPA    =     F    only Hartree local field effects (RPA)
   LNABLA  =     F    use nabla operator in PAW spheres
   LVEL    =     F    velocity operator in full k-point grid
   LINTERFAST=   F  fast interpolation
   KINTER  =     0    interpolate to denser k-point grid
   CSHIFT  =0.1000    complex shift for real part using Kramers Kronig
   OMEGAMAX=  -1.0    maximum frequency
   DEG_THRESHOLD= 0.2000000E-02 threshold for treating states as degnerate
   RTIME   =   -0.100 relaxation time in fs
  (WPLASMAI=    0.000 imaginary part of plasma frequency in eV, 0.658/RTIME)
   DFIELD  = 0.0000000 0.0000000 0.0000000 field for delta impulse in time
 
 Orbital magnetization related:
   ORBITALMAG=     F  switch on orbital magnetization
   LCHIMAG   =     F  perturbation theory with respect to B field
   DQ        =  0.001000  dq finite difference perturbation B field
   LLRAUG    =     F  two centre corrections for induced B field



--------------------------------------------------------------------------------------------------------


 Static calculation
 charge density and potential will be updated during run
 non-spin polarized calculation
 Variant of blocked Davidson
 Davidson routine will perform the subspace rotation
 perform sub-space diagonalisation
    after iterative eigenvector-optimisation
 modified Broyden-mixing scheme, WC =      100.0
 initial mixing is a Kerker type mixing with AMIX =  0.4000 and BMIX =      1.0000
 Hartree-type preconditioning will be used
 using additional bands           16
 real space projection scheme for non local part
 use partial core corrections
 calculate Harris-corrections to forces 
   (improved forces if not selfconsistent)
 use gradient corrections 
 use of overlap-Matrix (Vanderbilt PP)
 Methfessel and Paxton  Order N= 1 SIGMA  =   0.20


--------------------------------------------------------------------------------------------------------


  energy-cutoff  :      350.00
  volume of cell :      824.13
      direct lattice vectors                 reciprocal lattice vectors
     5.557859300  0.000000000  0.000000000     0.179925390 -0.103879972  0.000000000
     2.778929650  4.813247345  0.000000000     0.000000000  0.207759944  0.000000000
     0.000000000  0.000000000 30.806959674     0.000000000  0.000000000  0.032460198

  length of vectors
     5.557859300  5.557859300 30.806959674     0.207759944  0.207759944  0.032460198


 
 k-points in units of 2pi/SCALE and weight: 0.2.Ir1.Au15                            
   0.01124534  0.00649250  0.00000000       0.010
   0.00000000  0.01298500  0.00000000       0.010
  -0.01124534  0.00649250  0.00000000       0.010
   0.03373601 -0.00649250  0.00000000       0.010
   0.02249067  0.02596999  0.00000000       0.010
  -0.01124534  0.03246249  0.00000000       0.010
   0.02249067 -0.02596999  0.00000000       0.010
  -0.01124534 -0.03246249  0.00000000       0.010
  -0.03373601 -0.00649250  0.00000000       0.010
   0.05622668 -0.01947749  0.00000000       0.010
   0.04498135  0.03895499  0.00000000       0.010
  -0.01124534  0.05843248  0.00000000       0.010
   0.04498135 -0.03895499  0.00000000       0.010
  -0.01124534 -0.05843248  0.00000000       0.010
  -0.05622668 -0.01947749  0.00000000       0.010
   0.07871736 -0.03246249  0.00000000       0.010
   0.06747202  0.05193999  0.00000000       0.010
  -0.01124534  0.08440248  0.00000000       0.010
   0.06747202 -0.05193999  0.00000000       0.010
  -0.01124534 -0.08440248  0.00000000       0.010
  -0.07871736 -0.03246249  0.00000000       0.010
  -0.07871736  0.05843248  0.00000000       0.010
   0.08996269 -0.14283496  0.00000000       0.010
  -0.01124534  0.11037247  0.00000000       0.010
   0.08996269 -0.06492498  0.00000000       0.010
  -0.01124534  0.09738747  0.00000000       0.010
   0.07871736  0.05843248  0.00000000       0.010
  -0.05622668  0.04544749  0.00000000       0.010
  -0.06747202 -0.02596999  0.00000000       0.010
  -0.01124534 -0.07141748  0.00000000       0.010
  -0.06747202  0.02596999  0.00000000       0.010
  -0.01124534  0.07141748  0.00000000       0.010
   0.05622668  0.04544749  0.00000000       0.010
  -0.03373601  0.03246249  0.00000000       0.010
  -0.04498135 -0.01298500  0.00000000       0.010
  -0.01124534 -0.04544749  0.00000000       0.010
  -0.04498135  0.01298500  0.00000000       0.010
  -0.01124534  0.04544749  0.00000000       0.010
   0.03373601  0.03246249  0.00000000       0.010
  -0.01124534  0.01947749  0.00000000       0.010
  -0.02249067  0.00000000  0.00000000       0.010
  -0.01124534 -0.01947749  0.00000000       0.010
   0.03373601  0.01947749  0.00000000       0.010
   0.00000000  0.03895499  0.00000000       0.010
  -0.03373601  0.01947749  0.00000000       0.010
   0.05622668  0.00649250  0.00000000       0.010
   0.02249067  0.05193999  0.00000000       0.010
  -0.03373601  0.04544749  0.00000000       0.010
   0.02249067 -0.05193999  0.00000000       0.010
  -0.03373601 -0.04544749  0.00000000       0.010
  -0.05622668  0.00649250  0.00000000       0.010
   0.07871736 -0.00649250  0.00000000       0.010
   0.04498135  0.06492498  0.00000000       0.010
  -0.03373601  0.07141748  0.00000000       0.010
   0.04498135 -0.06492498  0.00000000       0.010
  -0.03373601 -0.07141748  0.00000000       0.010
  -0.07871736 -0.00649250  0.00000000       0.010
  -0.07871736  0.08440248  0.00000000       0.010
   0.06747202 -0.12984997  0.00000000       0.010
  -0.03373601  0.09738747  0.00000000       0.010
   0.06747202 -0.07790998  0.00000000       0.010
  -0.03373601  0.11037247  0.00000000       0.010
   0.07871736 -0.12335747  0.00000000       0.010
  -0.05622668  0.07141748  0.00000000       0.010
   0.08996269 -0.11686497  0.00000000       0.010
  -0.03373601  0.12335747  0.00000000       0.010
   0.08996269 -0.09089498  0.00000000       0.010
  -0.03373601  0.08440248  0.00000000       0.010
   0.05622668  0.07141748  0.00000000       0.010
  -0.03373601  0.05843248  0.00000000       0.010
  -0.06747202  0.00000000  0.00000000       0.010
  -0.03373601 -0.05843248  0.00000000       0.010
   0.05622668  0.03246249  0.00000000       0.010
   0.00000000  0.06492498  0.00000000       0.010
  -0.05622668  0.03246249  0.00000000       0.010
   0.07871736  0.01947749  0.00000000       0.010
   0.02249067  0.07790998  0.00000000       0.010
  -0.05622668  0.05843248  0.00000000       0.010
   0.02249067 -0.07790998  0.00000000       0.010
  -0.05622668 -0.05843248  0.00000000       0.010
  -0.07871736  0.01947749  0.00000000       0.010
  -0.07871736  0.11037247  0.00000000       0.010
   0.04498135 -0.11686497  0.00000000       0.010
  -0.05622668  0.08440248  0.00000000       0.010
   0.04498135 -0.09089498  0.00000000       0.010
  -0.05622668  0.12335747  0.00000000       0.010
   0.07871736 -0.09738747  0.00000000       0.010
  -0.05622668  0.09738747  0.00000000       0.010
   0.06747202 -0.10387997  0.00000000       0.010
  -0.05622668  0.11037247  0.00000000       0.010
   0.07871736  0.04544749  0.00000000       0.010
   0.00000000  0.09089498  0.00000000       0.010
  -0.07871736  0.04544749  0.00000000       0.010
  -0.07871736  0.13634246  0.00000000       0.010
   0.02249067 -0.10387997  0.00000000       0.010
  -0.07871736  0.07141748  0.00000000       0.010
 
 k-points in reciprocal lattice and weights: 0.2.Ir1.Au15                            
   0.06250000  0.06250000  0.00000000       0.010
   0.00000000  0.06250000  0.00000000       0.010
  -0.06250000  0.00000000  0.00000000       0.010
   0.18750000  0.06250000  0.00000000       0.010
   0.12500000  0.18750000  0.00000000       0.010
  -0.06250000  0.12500000  0.00000000       0.010
   0.12500000 -0.06250000  0.00000000       0.010
  -0.06250000 -0.18750000  0.00000000       0.010
  -0.18750000 -0.12500000  0.00000000       0.010
   0.31250000  0.06250000  0.00000000       0.010
   0.25000000  0.31250000  0.00000000       0.010
  -0.06250000  0.25000000  0.00000000       0.010
   0.25000000 -0.06250000  0.00000000       0.010
  -0.06250000 -0.31250000  0.00000000       0.010
  -0.31250000 -0.25000000  0.00000000       0.010
   0.43750000  0.06250000  0.00000000       0.010
   0.37500000  0.43750000  0.00000000       0.010
  -0.06250000  0.37500000  0.00000000       0.010
   0.37500000 -0.06250000  0.00000000       0.010
  -0.06250000 -0.43750000  0.00000000       0.010
  -0.43750000 -0.37500000  0.00000000       0.010
  -0.43750000  0.06250000  0.00000000       0.010
   0.50000000 -0.43750000  0.00000000       0.010
  -0.06250000  0.50000000  0.00000000       0.010
   0.50000000 -0.06250000  0.00000000       0.010
  -0.06250000  0.43750000  0.00000000       0.010
   0.43750000  0.50000000  0.00000000       0.010
  -0.31250000  0.06250000  0.00000000       0.010
  -0.37500000 -0.31250000  0.00000000       0.010
  -0.06250000 -0.37500000  0.00000000       0.010
  -0.37500000 -0.06250000  0.00000000       0.010
  -0.06250000  0.31250000  0.00000000       0.010
   0.31250000  0.37500000  0.00000000       0.010
  -0.18750000  0.06250000  0.00000000       0.010
  -0.25000000 -0.18750000  0.00000000       0.010
  -0.06250000 -0.25000000  0.00000000       0.010
  -0.25000000 -0.06250000  0.00000000       0.010
  -0.06250000  0.18750000  0.00000000       0.010
   0.18750000  0.25000000  0.00000000       0.010
  -0.06250000  0.06250000  0.00000000       0.010
  -0.12500000 -0.06250000  0.00000000       0.010
  -0.06250000 -0.12500000  0.00000000       0.010
   0.18750000  0.18750000  0.00000000       0.010
   0.00000000  0.18750000  0.00000000       0.010
  -0.18750000  0.00000000  0.00000000       0.010
   0.31250000  0.18750000  0.00000000       0.010
   0.12500000  0.31250000  0.00000000       0.010
  -0.18750000  0.12500000  0.00000000       0.010
   0.12500000 -0.18750000  0.00000000       0.010
  -0.18750000 -0.31250000  0.00000000       0.010
  -0.31250000 -0.12500000  0.00000000       0.010
   0.43750000  0.18750000  0.00000000       0.010
   0.25000000  0.43750000  0.00000000       0.010
  -0.18750000  0.25000000  0.00000000       0.010
   0.25000000 -0.18750000  0.00000000       0.010
  -0.18750000 -0.43750000  0.00000000       0.010
  -0.43750000 -0.25000000  0.00000000       0.010
  -0.43750000  0.18750000  0.00000000       0.010
   0.37500000 -0.43750000  0.00000000       0.010
  -0.18750000  0.37500000  0.00000000       0.010
   0.37500000 -0.18750000  0.00000000       0.010
  -0.18750000  0.43750000  0.00000000       0.010
   0.43750000 -0.37500000  0.00000000       0.010
  -0.31250000  0.18750000  0.00000000       0.010
   0.50000000 -0.31250000  0.00000000       0.010
  -0.18750000  0.50000000  0.00000000       0.010
   0.50000000 -0.18750000  0.00000000       0.010
  -0.18750000  0.31250000  0.00000000       0.010
   0.31250000  0.50000000  0.00000000       0.010
  -0.18750000  0.18750000  0.00000000       0.010
  -0.37500000 -0.18750000  0.00000000       0.010
  -0.18750000 -0.37500000  0.00000000       0.010
   0.31250000  0.31250000  0.00000000       0.010
   0.00000000  0.31250000  0.00000000       0.010
  -0.31250000  0.00000000  0.00000000       0.010
   0.43750000  0.31250000  0.00000000       0.010
   0.12500000  0.43750000  0.00000000       0.010
  -0.31250000  0.12500000  0.00000000       0.010
   0.12500000 -0.31250000  0.00000000       0.010
  -0.31250000 -0.43750000  0.00000000       0.010
  -0.43750000 -0.12500000  0.00000000       0.010
  -0.43750000  0.31250000  0.00000000       0.010
   0.25000000 -0.43750000  0.00000000       0.010
  -0.31250000  0.25000000  0.00000000       0.010
   0.25000000 -0.31250000  0.00000000       0.010
  -0.31250000  0.43750000  0.00000000       0.010
   0.43750000 -0.25000000  0.00000000       0.010
  -0.31250000  0.31250000  0.00000000       0.010
   0.37500000 -0.31250000  0.00000000       0.010
  -0.31250000  0.37500000  0.00000000       0.010
   0.43750000  0.43750000  0.00000000       0.010
   0.00000000  0.43750000  0.00000000       0.010
  -0.43750000 -0.00000000  0.00000000       0.010
  -0.43750000  0.43750000  0.00000000       0.010
   0.12500000 -0.43750000  0.00000000       0.010
  -0.43750000  0.12500000  0.00000000       0.010
 
 position of ions in fractional coordinates (direct lattice) 
   0.50514416  0.50150860  0.61860682
   0.99654131  0.98200101  0.69867488
   0.04611278  0.26048179  0.65647134
   0.87691220  0.19343300  0.71209906
   0.89825238  0.85994800  0.70725733
   0.21301894  0.88220564  0.71000282
   0.50018089  0.00511184  0.39429036
   0.00560370  0.50622903  0.62036782
   0.50977050  0.99806172  0.61878177
   0.00344512  0.99589709  0.63078680
   0.33503350  0.83908930  0.54553709
   0.00167450  0.00408733  0.39456289
   0.84040108  0.33451347  0.54526541
   0.66955091  0.67213343  0.46962411
   0.16884804  0.67231159  0.47055225
   0.66939657  0.17281857  0.46967056
   0.16967093  0.17152319  0.47036493
   0.49943333  0.50496366  0.39399991
   0.00190642  0.50396420  0.39428986
   0.33865719  0.33653694  0.54421247
   0.84155436  0.83882501  0.54580136
 
 position of ions in cartesian coordinates  (Angst):
   4.20117727  2.41388492 19.05739550
   8.26754812  4.72661376 21.52404872
   0.98014889  1.25376327 20.22388612
   5.41129134  0.93104088 21.93760712
   7.38209534  4.13914242 21.78844802
   3.63551668  4.24627395 21.87302822
   2.79414044  0.02460456 12.14688713
   1.43791946  2.43660553 19.11164627
   5.60677603  4.80391793 19.06278511
   2.78667545  4.79349903 19.43262359
   4.19383920  4.03874434 16.80633928
   0.02066505  0.01967331 12.15528297
   5.60042040  1.61009609 16.79796964
   5.58908129  3.23514446 14.46769100
   2.80674027  3.23600199 14.49628404
   4.20066260  0.83181851 14.46912197
   1.41965800  0.82558352 14.49051342
   4.17903865  2.43051498 12.13793946
   1.41107668  2.42570433 12.14687185
   2.81742146  1.61983552 16.76553154
   7.00827642  4.03747226 16.81448054
 


--------------------------------------------------------------------------------------------------------


 k-point  1 :   0.0625 0.0625 0.0000  plane waves:   12325
 k-point  2 :   0.0000 0.0625 0.0000  plane waves:   12325
 k-point  3 :  -0.0625 0.0000 0.0000  plane waves:   12325
 k-point  4 :   0.1875 0.0625 0.0000  plane waves:   12294
 k-point  5 :   0.1250 0.1875 0.0000  plane waves:   12294
 k-point  6 :  -0.0625 0.1250 0.0000  plane waves:   12294
 k-point  7 :   0.1250-0.0625 0.0000  plane waves:   12294
 k-point  8 :  -0.0625-0.1875 0.0000  plane waves:   12294
 k-point  9 :  -0.1875-0.1250 0.0000  plane waves:   12294
 k-point 10 :   0.3125 0.0625 0.0000  plane waves:   12263
 k-point 11 :   0.2500 0.3125 0.0000  plane waves:   12263
 k-point 12 :  -0.0625 0.2500 0.0000  plane waves:   12263
 k-point 13 :   0.2500-0.0625 0.0000  plane waves:   12263
 k-point 14 :  -0.0625-0.3125 0.0000  plane waves:   12263
 k-point 15 :  -0.3125-0.2500 0.0000  plane waves:   12263
 k-point 16 :   0.4375 0.0625 0.0000  plane waves:   12221
 k-point 17 :   0.3750 0.4375 0.0000  plane waves:   12221
 k-point 18 :  -0.0625 0.3750 0.0000  plane waves:   12221
 k-point 19 :   0.3750-0.0625 0.0000  plane waves:   12221
 k-point 20 :  -0.0625-0.4375 0.0000  plane waves:   12221
 k-point 21 :  -0.4375-0.3750 0.0000  plane waves:   12221
 k-point 22 :  -0.4375 0.0625 0.0000  plane waves:   12211
 k-point 23 :   0.5000-0.4375 0.0000  plane waves:   12211
 k-point 24 :  -0.0625 0.5000 0.0000  plane waves:   12211
 k-point 25 :   0.5000-0.0625 0.0000  plane waves:   12211
 k-point 26 :  -0.0625 0.4375 0.0000  plane waves:   12211
 k-point 27 :   0.4375 0.5000 0.0000  plane waves:   12211
 k-point 28 :  -0.3125 0.0625 0.0000  plane waves:   12242
 k-point 29 :  -0.3750-0.3125 0.0000  plane waves:   12242
 k-point 30 :  -0.0625-0.3750 0.0000  plane waves:   12242
 k-point 31 :  -0.3750-0.0625 0.0000  plane waves:   12242
 k-point 32 :  -0.0625 0.3125 0.0000  plane waves:   12242
 k-point 33 :   0.3125 0.3750 0.0000  plane waves:   12242
 k-point 34 :  -0.1875 0.0625 0.0000  plane waves:   12280
 k-point 35 :  -0.2500-0.1875 0.0000  plane waves:   12280
 k-point 36 :  -0.0625-0.2500 0.0000  plane waves:   12280
 k-point 37 :  -0.2500-0.0625 0.0000  plane waves:   12280
 k-point 38 :  -0.0625 0.1875 0.0000  plane waves:   12280
 k-point 39 :   0.1875 0.2500 0.0000  plane waves:   12280
 k-point 40 :  -0.0625 0.0625 0.0000  plane waves:   12329
 k-point 41 :  -0.1250-0.0625 0.0000  plane waves:   12329
 k-point 42 :  -0.0625-0.1250 0.0000  plane waves:   12329
 k-point 43 :   0.1875 0.1875 0.0000  plane waves:   12277
 k-point 44 :   0.0000 0.1875 0.0000  plane waves:   12277
 k-point 45 :  -0.1875 0.0000 0.0000  plane waves:   12277
 k-point 46 :   0.3125 0.1875 0.0000  plane waves:   12288
 k-point 47 :   0.1250 0.3125 0.0000  plane waves:   12288
 k-point 48 :  -0.1875 0.1250 0.0000  plane waves:   12288
 k-point 49 :   0.1250-0.1875 0.0000  plane waves:   12288
 k-point 50 :  -0.1875-0.3125 0.0000  plane waves:   12288
 k-point 51 :  -0.3125-0.1250 0.0000  plane waves:   12288
 k-point 52 :   0.4375 0.1875 0.0000  plane waves:   12234
 k-point 53 :   0.2500 0.4375 0.0000  plane waves:   12234
 k-point 54 :  -0.1875 0.2500 0.0000  plane waves:   12234
 k-point 55 :   0.2500-0.1875 0.0000  plane waves:   12234
 k-point 56 :  -0.1875-0.4375 0.0000  plane waves:   12234
 k-point 57 :  -0.4375-0.2500 0.0000  plane waves:   12234
 k-point 58 :  -0.4375 0.1875 0.0000  plane waves:   12216
 k-point 59 :   0.3750-0.4375 0.0000  plane waves:   12216
 k-point 60 :  -0.1875 0.3750 0.0000  plane waves:   12216
 k-point 61 :   0.3750-0.1875 0.0000  plane waves:   12216
 k-point 62 :  -0.1875 0.4375 0.0000  plane waves:   12216
 k-point 63 :   0.4375-0.3750 0.0000  plane waves:   12216
 k-point 64 :  -0.3125 0.1875 0.0000  plane waves:   12215
 k-point 65 :   0.5000-0.3125 0.0000  plane waves:   12215
 k-point 66 :  -0.1875 0.5000 0.0000  plane waves:   12215
 k-point 67 :   0.5000-0.1875 0.0000  plane waves:   12215
 k-point 68 :  -0.1875 0.3125 0.0000  plane waves:   12215
 k-point 69 :   0.3125 0.5000 0.0000  plane waves:   12215
 k-point 70 :  -0.1875 0.1875 0.0000  plane waves:   12289
 k-point 71 :  -0.3750-0.1875 0.0000  plane waves:   12289
 k-point 72 :  -0.1875-0.3750 0.0000  plane waves:   12289
 k-point 73 :   0.3125 0.3125 0.0000  plane waves:   12275
 k-point 74 :   0.0000 0.3125 0.0000  plane waves:   12275
 k-point 75 :  -0.3125 0.0000 0.0000  plane waves:   12275
 k-point 76 :   0.4375 0.3125 0.0000  plane waves:   12239
 k-point 77 :   0.1250 0.4375 0.0000  plane waves:   12239
 k-point 78 :  -0.3125 0.1250 0.0000  plane waves:   12239
 k-point 79 :   0.1250-0.3125 0.0000  plane waves:   12239
 k-point 80 :  -0.3125-0.4375 0.0000  plane waves:   12239
 k-point 81 :  -0.4375-0.1250 0.0000  plane waves:   12239
 k-point 82 :  -0.4375 0.3125 0.0000  plane waves:   12235
 k-point 83 :   0.2500-0.4375 0.0000  plane waves:   12235
 k-point 84 :  -0.3125 0.2500 0.0000  plane waves:   12235
 k-point 85 :   0.2500-0.3125 0.0000  plane waves:   12235
 k-point 86 :  -0.3125 0.4375 0.0000  plane waves:   12235
 k-point 87 :   0.4375-0.2500 0.0000  plane waves:   12235
 k-point 88 :  -0.3125 0.3125 0.0000  plane waves:   12232
 k-point 89 :   0.3750-0.3125 0.0000  plane waves:   12232
 k-point 90 :  -0.3125 0.3750 0.0000  plane waves:   12232
 k-point 91 :   0.4375 0.4375 0.0000  plane waves:   12200
 k-point 92 :   0.0000 0.4375 0.0000  plane waves:   12200
 k-point 93 :  -0.4375-0.0000 0.0000  plane waves:   12200
 k-point 94 :  -0.4375 0.4375 0.0000  plane waves:   12214
 k-point 95 :   0.1250-0.4375 0.0000  plane waves:   12214
 k-point 96 :  -0.4375 0.1250 0.0000  plane waves:   12214

 maximum and minimum number of plane-waves per node :      3101     2992

 maximum number of plane-waves:     12329
 maximum index in each direction: 
   IXMAX=    8   IYMAX=    8   IZMAX=   46
   IXMIN=   -8   IYMIN=   -8   IZMIN=  -46


 real space projection operators:
  total allocation   :       5100.03 KBytes
  max/ min on nodes  :       1278.54       1271.13


 parallel 3D FFT for wavefunctions:
    minimum data exchange during FFTs selected (reduces bandwidth)
 parallel 3D FFT for charge:
    minimum data exchange during FFTs selected (reduces bandwidth)


 total amount of memory used by VASP MPI-rank0   164315. kBytes
=======================================================================

   base      :      30000. kBytes
   nonlr-proj:       2362. kBytes
   fftplans  :       2967. kBytes
   grid      :       6321. kBytes
   one-center:         93. kBytes
   wavefun   :     122572. kBytes
 
     INWAV:  cpu time    0.0000: real time    0.0000
 Broyden mixing: mesh for mixing (old mesh)
   NGX = 17   NGY = 17   NGZ = 93
  (NGX  = 56   NGY  = 56   NGZ  =288)
  gives a total of  26877 points

 initial charge density was supplied:
 charge density of overlapping atoms calculated
 number of electron     168.0000000 magnetization 
 keeping initial charge density in first step


--------------------------------------------------------------------------------------------------------


 Maximum index for non-local projection operator          542
 Maximum index for augmentation-charges          716 (set IRDMAX)


--------------------------------------------------------------------------------------------------------


 First call to EWALD:  gamma=   0.189
 Maximum number of real-space cells 5x 5x 1
 Maximum number of reciprocal cells 2x 2x 8

    FEWALD:  cpu time    0.0013: real time    0.0013


--------------------------------------- Iteration      1(   1)  ---------------------------------------


    POTLOK:  cpu time    0.0257: real time    0.0409
    SETDIJ:  cpu time    0.0035: real time    0.0035
     EDDAV:  cpu time   13.5472: real time   13.5502
       DOS:  cpu time    0.0075: real time    0.0075
    --------------------------------------------
      LOOP:  cpu time   13.5839: real time   13.6020

 eigenvalue-minimisations  : 19288
 total energy-change (2. order) : 0.1030007E+04  (-0.5832387E+04)
 number of electron     168.0000000 magnetization 
 augmentation part      168.0000000 magnetization 

 Free energy of the ion-electron system (eV)
  ---------------------------------------------------
  alpha Z        PSCENC =       324.87461712
  Ewald energy   TEWEN  =    100779.37115293
  -Hartree energ DENC   =   -113066.29743155
  -exchange      EXHF   =         0.00000000
  -V(xc)+E(xc)   XCENC  =        69.33676050
  PAW double counting   =     11288.27476651   -10829.50941267
  entropy T*S    EENTRO =        -0.00147163
  eigenvalues    EBANDS =       573.32082335
  atomic energy  EATOM  =     11890.63736546
  Solvation  Ediel_sol  =         0.00000000
  ---------------------------------------------------
  free energy    TOTEN  =      1030.00717002 eV

  energy without entropy =     1030.00864165  energy(sigma->0) =     1030.00766056


--------------------------------------------------------------------------------------------------------




--------------------------------------- Iteration      1(   2)  ---------------------------------------


     EDDAV:  cpu time   16.0468: real time   16.0478
       DOS:  cpu time    0.0082: real time    0.0082
    --------------------------------------------
      LOOP:  cpu time   16.0550: real time   16.0560

 eigenvalue-minimisations  : 24008
 total energy-change (2. order) :-0.1059213E+04  (-0.9853310E+03)
 number of electron     168.0000000 magnetization 
 augmentation part      168.0000000 magnetization 

 Free energy of the ion-electron system (eV)
  ---------------------------------------------------
  alpha Z        PSCENC =       324.87461712
  Ewald energy   TEWEN  =    100779.37115293
  -Hartree energ DENC   =   -113066.29743155
  -exchange      EXHF   =         0.00000000
  -V(xc)+E(xc)   XCENC  =        69.33676050
  PAW double counting   =     11288.27476651   -10829.50941267
  entropy T*S    EENTRO =        -0.00308729
  eigenvalues    EBANDS =      -485.89030079
  atomic energy  EATOM  =     11890.63736546
  Solvation  Ediel_sol  =         0.00000000
  ---------------------------------------------------
  free energy    TOTEN  =       -29.20556978 eV

  energy without entropy =      -29.20248248  energy(sigma->0) =      -29.20454068


--------------------------------------------------------------------------------------------------------




--------------------------------------- Iteration      1(   3)  ---------------------------------------


     EDDAV:  cpu time   15.5745: real time   15.5798
       DOS:  cpu time    0.0090: real time    0.0090
    --------------------------------------------
      LOOP:  cpu time   15.5835: real time   15.5888

 eigenvalue-minimisations  : 23136
 total energy-change (2. order) :-0.9192052E+02  (-0.8515525E+02)
 number of electron     168.0000000 magnetization 
 augmentation part      168.0000000 magnetization 

 Free energy of the ion-electron system (eV)
  ---------------------------------------------------
  alpha Z        PSCENC =       324.87461712
  Ewald energy   TEWEN  =    100779.37115293
  -Hartree energ DENC   =   -113066.29743155
  -exchange      EXHF   =         0.00000000
  -V(xc)+E(xc)   XCENC  =        69.33676050
  PAW double counting   =     11288.27476651   -10829.50941267
  entropy T*S    EENTRO =        -0.01580530
  eigenvalues    EBANDS =      -577.79810154
  atomic energy  EATOM  =     11890.63736546
  Solvation  Ediel_sol  =         0.00000000
  ---------------------------------------------------
  free energy    TOTEN  =      -121.12608853 eV

  energy without entropy =     -121.11028323  energy(sigma->0) =     -121.12082010


--------------------------------------------------------------------------------------------------------




--------------------------------------- Iteration      1(   4)  ---------------------------------------


     EDDAV:  cpu time   16.8170: real time   16.8176
       DOS:  cpu time    0.0089: real time    0.0089
    --------------------------------------------
      LOOP:  cpu time   16.8259: real time   16.8265

 eigenvalue-minimisations  : 25576
 total energy-change (2. order) :-0.4362619E+01  (-0.4160475E+01)
 number of electron     168.0000000 magnetization 
 augmentation part      168.0000000 magnetization 

 Free energy of the ion-electron system (eV)
  ---------------------------------------------------
  alpha Z        PSCENC =       324.87461712
  Ewald energy   TEWEN  =    100779.37115293
  -Hartree energ DENC   =   -113066.29743155
  -exchange      EXHF   =         0.00000000
  -V(xc)+E(xc)   XCENC  =        69.33676050
  PAW double counting   =     11288.27476651   -10829.50941267
  entropy T*S    EENTRO =        -0.02619255
  eigenvalues    EBANDS =      -582.15033283
  atomic energy  EATOM  =     11890.63736546
  Solvation  Ediel_sol  =         0.00000000
  ---------------------------------------------------
  free energy    TOTEN  =      -125.48870708 eV

  energy without entropy =     -125.46251453  energy(sigma->0) =     -125.47997623


--------------------------------------------------------------------------------------------------------




--------------------------------------- Iteration      1(   5)  ---------------------------------------


     EDDAV:  cpu time   16.9032: real time   16.9067
       DOS:  cpu time    0.0090: real time    0.0090
    CHARGE:  cpu time    0.7096: real time    0.7096
    MIXING:  cpu time    0.0010: real time    0.0011
    --------------------------------------------
      LOOP:  cpu time   17.6228: real time   17.6264

 eigenvalue-minimisations  : 25676
 total energy-change (2. order) :-0.1299425E+00  (-0.1288025E+00)
 number of electron     167.9999970 magnetization 
 augmentation part       46.9178776 magnetization 

 Broyden mixing:
  rms(total) = 0.43581E+01    rms(broyden)= 0.43578E+01
  rms(prec ) = 0.44035E+01
  weight for this iteration     100.00

 Free energy of the ion-electron system (eV)
  ---------------------------------------------------
  alpha Z        PSCENC =       324.87461712
  Ewald energy   TEWEN  =    100779.37115293
  -Hartree energ DENC   =   -113066.29743155
  -exchange      EXHF   =         0.00000000
  -V(xc)+E(xc)   XCENC  =        69.33676050
  PAW double counting   =     11288.27476651   -10829.50941267
  entropy T*S    EENTRO =        -0.02653147
  eigenvalues    EBANDS =      -582.27993645
  atomic energy  EATOM  =     11890.63736546
  Solvation  Ediel_sol  =         0.00000000
  ---------------------------------------------------
  free energy    TOTEN  =      -125.61864961 eV

  energy without entropy =     -125.59211815  energy(sigma->0) =     -125.60980579


--------------------------------------------------------------------------------------------------------




--------------------------------------- Iteration      1(   6)  ---------------------------------------


    POTLOK:  cpu time    0.0233: real time    0.0238
    SETDIJ:  cpu time    0.0034: real time    0.0034
     EDDAV:  cpu time   15.6026: real time   15.6029
       DOS:  cpu time    0.0099: real time    0.0099
    CHARGE:  cpu time    0.7484: real time    0.7484
    MIXING:  cpu time    0.0011: real time    0.0011
    --------------------------------------------
      LOOP:  cpu time   16.3887: real time   16.3895

 eigenvalue-minimisations  : 23184
 total energy-change (2. order) : 0.7322144E+01  (-0.3369550E+01)
 number of electron     167.9999971 magnetization 
 augmentation part       49.9307735 magnetization 

 Broyden mixing:
  rms(total) = 0.31820E+01    rms(broyden)= 0.31819E+01
  rms(prec ) = 0.32799E+01
  weight for this iteration     100.00

 eigenvalues of (default mixing * dielectric matrix)
  average eigenvalue GAMMA=   1.1961
  1.1961

 Free energy of the ion-electron system (eV)
  ---------------------------------------------------
  alpha Z        PSCENC =       324.87461712
  Ewald energy   TEWEN  =    100779.37115293
  -Hartree energ DENC   =   -112846.41177429
  -exchange      EXHF   =         0.00000000
  -V(xc)+E(xc)   XCENC  =        66.14220521
  PAW double counting   =     12553.14498728   -12118.37967969
  entropy T*S    EENTRO =        -0.00445384
  eigenvalues    EBANDS =      -767.67092548
  atomic energy  EATOM  =     11890.63736546
  Solvation  Ediel_sol  =         0.00000000
  ---------------------------------------------------
  free energy    TOTEN  =      -118.29650530 eV

  energy without entropy =     -118.29205147  energy(sigma->0) =     -118.29502069


--------------------------------------------------------------------------------------------------------




--------------------------------------- Iteration      1(   7)  ---------------------------------------


    POTLOK:  cpu time    0.0217: real time    0.0259
    SETDIJ:  cpu time    0.0034: real time    0.0034
     EDDAV:  cpu time   17.5592: real time   17.5597
       DOS:  cpu time    0.0097: real time    0.0096
    CHARGE:  cpu time    0.7081: real time    0.7081
    MIXING:  cpu time    0.0013: real time    0.0013
    --------------------------------------------
      LOOP:  cpu time   18.3033: real time   18.3080

 eigenvalue-minimisations  : 26948
 total energy-change (2. order) :-0.2182966E+02  (-0.9265070E+01)
 number of electron     167.9999963 magnetization 
 augmentation part       49.0102254 magnetization 

 Broyden mixing:
  rms(total) = 0.44525E+01    rms(broyden)= 0.44523E+01
  rms(prec ) = 0.48948E+01
  weight for this iteration     100.00

 eigenvalues of (default mixing * dielectric matrix)
  average eigenvalue GAMMA=   1.1143
  1.9619  0.2666

 Free energy of the ion-electron system (eV)
  ---------------------------------------------------
  alpha Z        PSCENC =       324.87461712
  Ewald energy   TEWEN  =    100779.37115293
  -Hartree energ DENC   =   -113049.89037716
  -exchange      EXHF   =         0.00000000
  -V(xc)+E(xc)   XCENC  =        65.67386025
  PAW double counting   =     13569.97279410   -13144.34461858
  entropy T*S    EENTRO =         0.00737039
  eigenvalues    EBANDS =      -576.42833319
  atomic energy  EATOM  =     11890.63736546
  Solvation  Ediel_sol  =         0.00000000
  ---------------------------------------------------
  free energy    TOTEN  =      -140.12616868 eV

  energy without entropy =     -140.13353907  energy(sigma->0) =     -140.12862548


--------------------------------------------------------------------------------------------------------




--------------------------------------- Iteration      1(   8)  ---------------------------------------


    POTLOK:  cpu time    0.0228: real time    0.0228
    SETDIJ:  cpu time    0.0034: real time    0.0034
     EDDAV:  cpu time   18.6909: real time   18.6921
       DOS:  cpu time    0.0099: real time    0.0099
    CHARGE:  cpu time    0.7077: real time    0.7077
    MIXING:  cpu time    0.0011: real time    0.0011
    --------------------------------------------
      LOOP:  cpu time   19.4359: real time   19.4370

 eigenvalue-minimisations  : 29008
 total energy-change (2. order) : 0.2078922E+02  (-0.3057560E+01)
 number of electron     167.9999976 magnetization 
 augmentation part       50.3596444 magnetization 

 Broyden mixing:
  rms(total) = 0.16613E+01    rms(broyden)= 0.16611E+01
  rms(prec ) = 0.20593E+01
  weight for this iteration     100.00

 eigenvalues of (default mixing * dielectric matrix)
  average eigenvalue GAMMA=   0.9630
  2.0621  0.5322  0.2946

 Free energy of the ion-electron system (eV)
  ---------------------------------------------------
  alpha Z        PSCENC =       324.87461712
  Ewald energy   TEWEN  =    100779.37115293
  -Hartree energ DENC   =   -112894.70398855
  -exchange      EXHF   =         0.00000000
  -V(xc)+E(xc)   XCENC  =        65.09829919
  PAW double counting   =     14541.14164190   -14126.01313498
  entropy T*S    EENTRO =        -0.00247903
  eigenvalues    EBANDS =      -699.74042679
  atomic energy  EATOM  =     11890.63736546
  Solvation  Ediel_sol  =         0.00000000
[...]
     21      -5.1521      2.00000
     22      -5.0361      2.00000
     23      -4.9726      2.00000
     24      -4.8801      2.00000
     25      -4.8562      2.00000
     26      -4.7685      2.00000
     27      -4.7229      2.00000
     28      -4.6656      2.00000
     29      -4.6114      2.00000
     30      -4.5402      2.00000
     31      -4.5143      2.00000
     32      -4.4857      2.00000
     33      -4.3669      2.00000
     34      -4.2191      2.00000
     35      -4.1840      2.00000
     36      -4.0871      2.00000
     37      -4.0122      2.00000
     38      -3.9675      2.00000
     39      -3.8591      2.00000
     40      -3.8286      2.00000
     41      -3.7634      2.00000
     42      -3.7319      2.00000
     43      -3.6048      2.00000
     44      -3.5820      2.00000
     45      -3.4830      2.00000
     46      -3.4250      2.00000
     47      -3.3039      2.00000
     48      -3.2425      2.00000
     49      -3.1676      2.00000
     50      -3.1132      2.00000
     51      -3.0639      2.00000
     52      -3.0430      2.00000
     53      -2.9444      2.00000
     54      -2.8719      2.00000
     55      -2.8235      2.00000
     56      -2.7431      2.00000
     57      -2.6207      2.00000
     58      -2.5367      2.00000
     59      -2.4494      2.00000
     60      -2.3454      2.00000
     61      -2.3167      2.00000
     62      -2.2378      2.00000
     63      -2.1180      2.00000
     64      -2.0831      2.00000
     65      -2.0711      2.00000
     66      -2.0083      2.00000
     67      -1.9285      2.00000
     68      -1.8336      2.00000
     69      -1.7926      2.00000
     70      -1.6477      2.00000
     71      -1.5881      2.00000
     72      -1.5272      2.00000
     73      -1.4898      2.00000
     74      -1.4138      2.00000
     75      -1.3654      2.00000
     76      -1.2430      2.00000
     77      -1.1207      2.00000
     78      -1.0394      2.00000
     79      -0.9176      2.00005
     80      -0.8511      2.00031
     81      -0.8138      2.00081
     82      -0.5246      2.07018
     83      -0.4727      2.05341
     84      -0.3905      1.84450
     85      -0.3134      1.36199
     86      -0.2059      0.49043
     87      -0.1908      0.38795
     88      -0.1055      0.00988
     89       0.0053     -0.06535
     90       0.6531     -0.00000
     91       0.8872     -0.00000
     92       1.1055     -0.00000
     93       1.7080     -0.00000
     94       1.9493     -0.00000
     95       2.7032     -0.00000
     96       2.8611     -0.00000
     97       3.3442     -0.00000
     98       3.8689     -0.00000
     99       4.2359     -0.00000
    100       4.4873     -0.00000

 k-point    96 :      -0.4375    0.1250    0.0000
  band No.  band energies     occupation 
      1     -12.6227      2.00000
      2      -8.0665      2.00000
      3      -7.7285      2.00000
      4      -7.5044      2.00000
      5      -6.8042      2.00000
      6      -6.5052      2.00000
      7      -6.2479      2.00000
      8      -6.0716      2.00000
      9      -5.9579      2.00000
     10      -5.9172      2.00000
     11      -5.8303      2.00000
     12      -5.7446      2.00000
     13      -5.6895      2.00000
     14      -5.6561      2.00000
     15      -5.6373      2.00000
     16      -5.5792      2.00000
     17      -5.3914      2.00000
     18      -5.3045      2.00000
     19      -5.2346      2.00000
     20      -5.2140      2.00000
     21      -5.1362      2.00000
     22      -4.9929      2.00000
     23      -4.9350      2.00000
     24      -4.8612      2.00000
     25      -4.8047      2.00000
     26      -4.7384      2.00000
     27      -4.6984      2.00000
     28      -4.6367      2.00000
     29      -4.5680      2.00000
     30      -4.5394      2.00000
     31      -4.4896      2.00000
     32      -4.4252      2.00000
     33      -4.3249      2.00000
     34      -4.2427      2.00000
     35      -4.1912      2.00000
     36      -4.1331      2.00000
     37      -4.0074      2.00000
     38      -3.9346      2.00000
     39      -3.8642      2.00000
     40      -3.8437      2.00000
     41      -3.7855      2.00000
     42      -3.6998      2.00000
     43      -3.6068      2.00000
     44      -3.5940      2.00000
     45      -3.5030      2.00000
     46      -3.4458      2.00000
     47      -3.3321      2.00000
     48      -3.2850      2.00000
     49      -3.1657      2.00000
     50      -3.1139      2.00000
     51      -3.0762      2.00000
     52      -3.0410      2.00000
     53      -2.9599      2.00000
     54      -2.8681      2.00000
     55      -2.8369      2.00000
     56      -2.6312      2.00000
     57      -2.6073      2.00000
     58      -2.4808      2.00000
     59      -2.4170      2.00000
     60      -2.3778      2.00000
     61      -2.2787      2.00000
     62      -2.2231      2.00000
     63      -2.1442      2.00000
     64      -2.0906      2.00000
     65      -2.0512      2.00000
     66      -1.9676      2.00000
     67      -1.9002      2.00000
     68      -1.8390      2.00000
     69      -1.7702      2.00000
     70      -1.6807      2.00000
     71      -1.5950      2.00000
     72      -1.5203      2.00000
     73      -1.5022      2.00000
     74      -1.4471      2.00000
     75      -1.3869      2.00000
     76      -1.2480      2.00000
     77      -1.1229      2.00000
     78      -1.0706      2.00000
     79      -0.9844      2.00001
     80      -0.8639      2.00022
     81      -0.7288      2.00547
     82      -0.5916      2.04517
     83      -0.4448      2.01427
     84      -0.3991      1.88067
     85      -0.3251      1.45120
     86      -0.2664      0.97329
     87      -0.1319      0.08876
     88      -0.0347     -0.07007
     89       0.0433     -0.04945
     90       0.5428     -0.00000
     91       0.8693     -0.00000
     92       1.1092     -0.00000
     93       1.6878     -0.00000
     94       1.8870     -0.00000
     95       2.5584     -0.00000
     96       2.8508     -0.00000
     97       3.4205     -0.00000
     98       3.7605     -0.00000
     99       4.2421     -0.00000
    100       4.3810     -0.00000


--------------------------------------------------------------------------------------------------------


 soft charge-density along one line, spin component           1
         0         1         2         3         4         5         6         7         8         9
 total charge-density along one line
 
 pseudopotential strength for first ion, spin component:           1
 -7.821   0.000   0.004  -0.008   0.002  -7.972   0.000   0.004
  0.000  -7.775   0.000  -0.000  -0.007   0.000  -7.928   0.000
  0.004   0.000  -7.769   0.000   0.003   0.004   0.000  -7.922
 -0.008  -0.000   0.000  -7.775   0.001  -0.008  -0.000   0.000
  0.002  -0.007   0.003   0.001  -7.823   0.002  -0.007   0.003
 -7.972   0.000   0.004  -0.008   0.002  -8.108   0.000   0.004
  0.000  -7.928   0.000  -0.000  -0.007   0.000  -8.064   0.000
  0.004   0.000  -7.922   0.000   0.003   0.004   0.000  -8.058
 -0.008  -0.000   0.000  -7.927   0.001  -0.008  -0.000   0.000
  0.002  -0.007   0.003   0.001  -7.975   0.002  -0.007   0.002
  0.001   0.000  -0.018  -0.000   0.001   0.001  -0.000  -0.018
  0.002  -0.000  -0.026  -0.000   0.001   0.002  -0.000  -0.026
  0.001   0.003   0.001  -0.000   0.000   0.001   0.003   0.000
 -0.000  -0.001   0.005   0.001  -0.000  -0.000  -0.001   0.005
 -0.001  -0.000  -0.000   0.003   0.001  -0.001  -0.000  -0.000
  0.001   0.003   0.001  -0.000   0.000   0.001   0.002   0.001
 -0.000  -0.001   0.004   0.001  -0.000  -0.000  -0.001   0.004
 -0.002  -0.000  -0.000   0.003   0.001  -0.002  -0.000  -0.000
 total augmentation occupancy for first ion, spin component:           1
  5.292  -0.016   0.107  -0.138   0.068  -3.359   0.018  -0.056   0.012  -0.037  -0.021  -0.022   0.003   0.043   0.038   0.001
 -0.016   4.794   0.021   0.014  -0.076   0.018  -2.625  -0.014   0.001  -0.036   0.013  -0.008   0.162  -0.005   0.040  -0.006
  0.107   0.021   5.444  -0.004   0.023  -0.056  -0.014  -3.299   0.004   0.001   0.710  -0.061   0.001   0.431  -0.001   0.000
 -0.138   0.014  -0.004   4.895   0.045   0.014   0.001   0.004  -2.690  -0.030  -0.000   0.008   0.038   0.004   0.184  -0.002
  0.068  -0.076   0.023   0.045   5.187  -0.037  -0.037   0.001  -0.030  -3.298  -0.035   0.008   0.055   0.016   0.007  -0.001
 -3.359   0.018  -0.056   0.014  -0.037   3.319  -0.019   0.016   0.083   0.012   0.023   0.018  -0.004  -0.038  -0.032  -0.000
  0.018  -2.625  -0.014   0.001  -0.037  -0.019   2.401   0.009  -0.014   0.123  -0.012   0.007  -0.154   0.007  -0.035   0.007
 -0.056  -0.014  -3.299   0.004   0.001   0.016   0.009   3.099  -0.004  -0.020  -0.660   0.086  -0.003  -0.424   0.005   0.000
  0.012   0.001   0.004  -2.690  -0.030   0.083  -0.014  -0.004   2.437   0.019  -0.004  -0.006  -0.034  -0.004  -0.177   0.001
 -0.037  -0.036   0.001  -0.030  -3.298   0.012   0.123  -0.020   0.019   3.292   0.032  -0.008  -0.053  -0.015  -0.010   0.002
 -0.021   0.013   0.710  -0.000  -0.035   0.023  -0.012  -0.660  -0.004   0.032   2.660  -0.637   0.008  -0.164  -0.005  -0.001
 -0.022  -0.008  -0.061   0.008   0.008   0.018   0.007   0.086  -0.006  -0.008  -0.637   0.189  -0.000   0.069  -0.000   0.000
  0.003   0.162   0.001   0.038   0.055  -0.004  -0.154  -0.003  -0.034  -0.053   0.008  -0.000   0.230   0.000   0.005  -0.007
  0.043  -0.005   0.431   0.004   0.016  -0.038   0.007  -0.424  -0.004  -0.015  -0.164   0.069   0.000   0.146  -0.002   0.000
  0.038   0.040  -0.001   0.184   0.007  -0.032  -0.035   0.005  -0.177  -0.010  -0.005  -0.000   0.005  -0.002   0.234  -0.000
  0.001  -0.006   0.000  -0.002  -0.001  -0.000   0.007   0.000   0.001   0.002  -0.001   0.000  -0.007   0.000  -0.000   0.000
 -0.001  -0.001  -0.007   0.001  -0.000   0.001   0.000   0.011  -0.000   0.000   0.009  -0.003   0.000  -0.005   0.000  -0.000
 -0.003  -0.002  -0.000  -0.007   0.001   0.001   0.001  -0.000   0.007   0.000   0.000  -0.000  -0.000  -0.000  -0.007  -0.000


------------------------ aborting loop because EDIFF is reached ----------------------------------------



 DIPCOR: dipole corrections for dipol
 direction  3 min pos    21,
 dipolmoment           0.000000      0.000000     -0.259098 electrons x Angstroem
 Tr[quadrupol]      -953.151970

 energy correction for charged system         0.000000 eV
 dipol+quadrupol energy correction            0.007370 eV
 added-field ion interaction          0.000000 eV  (added to PSCEN)

 
  *************** adding dipol energy to TOTEN NOW **************** 
    CHARGE:  cpu time    0.7099: real time    0.7100
    FORLOC:  cpu time    0.0069: real time    0.0069
    FORNL :  cpu time    3.0753: real time    3.0754
    STRESS:  cpu time    9.2826: real time    9.2828
    FORCOR:  cpu time    0.0292: real time    0.0295
    FORHAR:  cpu time    0.0120: real time    0.0120
    MIXING:  cpu time    0.0044: real time    0.0044
    OFIELD:  cpu time    0.0000: real time    0.0000

  FORCE on cell =-STRESS in cart. coord.  units (eV):
  Direction    XX          YY          ZZ          XY          YZ          ZX
  --------------------------------------------------------------------------------------
  Alpha Z   324.87462   324.87462   324.87462
  Ewald  109637.23256109670.07720************    30.68611    -9.87182    -6.55050
  Hartree112143.22637112157.82185************    11.33708    -4.30086    -2.80618
  E(xc)    -737.32316  -737.25518  -741.42576     0.10959     0.00557    -0.04349
  Local  ************************226932.62075   -37.94490    13.78095     8.70709
  n-local    45.06666    46.19843    35.41617    -0.27322    -1.18420    -0.22909
  augment   836.56356   835.63377   858.31385    -0.60880     0.27297     0.25113
  Kinetic  2386.71909  2383.29342  2446.56537    -2.98186     0.11508     0.02671
  Fock        0.00000     0.00000     0.00000     0.00000     0.00000     0.00000
  -------------------------------------------------------------------------------------
  Total     -10.53107   -10.12137    -2.09776     0.32400    -1.18233    -0.64434
  in kB     -20.47334   -19.67684    -4.07822     0.62988    -2.29855    -1.25265
  external pressure =      -14.74 kB  Pullay stress =        0.00 kB


 VOLUME and BASIS-vectors are now :
 -----------------------------------------------------------------------------
  energy-cutoff  :      350.00
  volume of cell :      824.13
      direct lattice vectors                 reciprocal lattice vectors
     5.557859300  0.000000000  0.000000000     0.179925390 -0.103879972  0.000000000
     2.778929650  4.813247345  0.000000000     0.000000000  0.207759944  0.000000000
     0.000000000  0.000000000 30.806959674     0.000000000  0.000000000  0.032460198

  length of vectors
     5.557859300  5.557859300 30.806959674     0.207759944  0.207759944  0.032460198


 FORCES acting on ions
    electron-ion (+dipol)            ewald-force                    non-local-force                 convergence-correction
 -----------------------------------------------------------------------------------------------
   -.991E+00 0.312E+01 -.279E+04   0.792E+00 -.291E+01 0.279E+04   0.210E+00 -.268E+00 0.760E+00   -.160E-03 -.215E-03 -.101E-02
   0.336E+01 0.333E+01 -.134E+04   -.364E+01 -.373E+01 0.134E+04   0.222E+00 0.342E+00 -.179E+01   -.395E-04 -.195E-04 -.201E-02
   -.104E+02 -.584E+01 -.339E+03   0.107E+02 0.555E+01 0.341E+03   -.137E+00 0.348E+00 -.182E+01   0.111E-03 0.782E-04 -.419E-03
   0.466E+01 -.445E+02 -.345E+03   -.512E+01 0.495E+02 0.347E+03   0.406E+00 -.506E+01 -.209E+01   -.974E-05 0.841E-04 -.512E-03
   0.399E+02 0.261E+02 -.341E+03   -.445E+02 -.292E+02 0.342E+03   0.454E+01 0.300E+01 -.131E+01   -.944E-04 -.515E-04 -.535E-03
   -.411E+02 0.221E+02 -.343E+03   0.457E+02 -.245E+02 0.345E+03   -.464E+01 0.241E+01 -.173E+01   0.870E-04 -.393E-04 -.521E-03
   -.111E+01 0.160E+01 0.265E+04   0.109E+01 -.159E+01 -.265E+04   0.313E-01 0.135E-01 -.134E+00   0.559E-04 0.153E-04 0.109E-01
   -.435E+01 -.312E+01 -.254E+04   0.411E+01 0.284E+01 0.254E+04   0.160E+00 0.375E+00 -.154E+01   0.137E-03 -.575E-04 -.111E-02
   0.966E+01 -.761E+01 -.254E+04   -.889E+01 0.688E+01 0.254E+04   -.762E+00 0.710E+00 0.135E+01   0.449E-04 0.244E-03 -.640E-03
   -.138E+01 0.393E+01 -.263E+04   0.668E+00 -.447E+01 0.264E+04   0.669E+00 0.599E+00 -.541E+01   -.146E-03 -.455E-04 -.212E-02
   0.412E+01 -.102E+02 -.717E+03   -.439E+01 0.106E+02 0.717E+03   0.331E+00 -.178E+00 0.220E-02   0.997E-04 -.342E-05 0.134E-01
   0.893E+00 -.926E+00 0.294E+04   -.892E+00 0.843E+00 -.294E+04   -.166E-01 0.117E+00 -.736E+00   -.108E-03 -.524E-04 0.119E-01
   -.614E+01 0.898E+01 -.715E+03   0.632E+01 -.934E+01 0.714E+03   0.139E-01 0.295E+00 0.346E+00   -.859E-06 0.803E-04 0.133E-01
   -.291E+00 -.606E+01 0.115E+04   0.301E+00 0.628E+01 -.115E+04   -.338E-01 -.438E-01 0.110E+00   0.147E-03 -.143E-02 0.262E-01
   0.156E+00 -.147E+01 0.113E+04   -.184E+00 0.154E+01 -.113E+04   0.413E-01 -.546E-01 -.661E+00   -.138E-03 -.111E-03 0.250E-01
   0.393E+01 0.462E+01 0.115E+04   -.406E+01 -.471E+01 -.115E+04   0.770E-02 0.244E-01 -.232E+00   0.115E-02 0.670E-03 0.264E-01
   -.356E+01 0.346E+01 0.114E+04   0.370E+01 -.356E+01 -.114E+04   -.300E-01 0.128E-01 -.410E+00   -.113E-02 0.836E-03 0.262E-01
   -.276E+01 0.184E+00 0.295E+04   0.261E+01 -.122E+00 -.295E+04   0.194E+00 -.736E-01 -.642E+00   -.559E-04 0.578E-05 0.118E-01
   0.218E+01 -.101E+01 0.294E+04   -.209E+01 0.100E+01 -.294E+04   -.118E+00 0.512E-03 -.641E+00   0.290E-04 0.102E-03 0.118E-01
   0.584E+01 0.444E+01 -.681E+03   -.598E+01 -.445E+01 0.680E+03   0.420E-01 -.358E-01 0.374E+00   -.451E-06 -.250E-04 0.139E-01
   -.330E+01 -.363E+01 -.723E+03   0.373E+01 0.360E+01 0.724E+03   -.465E+00 0.150E-01 -.414E+00   -.116E-03 -.197E-04 0.134E-01
 -----------------------------------------------------------------------------------------------
   -.649E+00 -.253E+01 0.164E+02   -.604E-13 -.688E-13 0.136E-11   0.663E+00 0.255E+01 -.166E+02   -.137E-03 0.446E-04 0.195E+00
 
 
 POSITION                                       TOTAL-FORCE (eV/Angst)
 -----------------------------------------------------------------------------------
      4.20118      2.41388     19.05740         0.010442     -0.052887      1.004886
      8.26755      4.72661     21.52405        -0.058388     -0.059881     -0.032453
      0.98015      1.25376     20.22389         0.189890      0.062715     -0.124831
      5.41129      0.93104     21.93761        -0.051417     -0.068083     -0.036657
      7.38210      4.13914     21.78845        -0.055930     -0.102994      0.070291
      3.63552      4.24627     21.87303        -0.049385     -0.044950      0.011631
      2.79414      0.02460     12.14689         0.014531      0.023627      1.168824
      1.43792      2.43661     19.11165        -0.074409      0.096349     -0.147692
      5.60678      4.80392     19.06279         0.005978     -0.017980     -0.107683
      2.78668      4.79350     19.43262        -0.039874      0.051841      0.088438
      4.19384      4.03874     16.80634         0.060136      0.187137     -0.182658
      0.02067      0.01967     12.15528        -0.015970      0.033476     -0.102188
      5.60042      1.61010     16.79797         0.200567     -0.064842     -0.390478
      5.58908      3.23514     14.46769        -0.024163      0.176626     -0.292194
      2.80674      3.23600     14.49628         0.013207      0.016472      0.083625
      4.20066      0.83182     14.46912        -0.124315     -0.061811     -0.249721
      1.41966      0.82558     14.49051         0.108100     -0.090532     -0.515628
      4.17904      2.43051     12.13794         0.039252     -0.012327     -0.132790
      1.41108      2.42570     12.14687        -0.019162     -0.008362     -0.097751
      2.81742      1.61984     16.76553        -0.092824     -0.052497     -0.146279
      7.00828      4.03747     16.81448        -0.036265     -0.011099      0.131307
 -----------------------------------------------------------------------------------
    total drift:                                0.013956      0.013873      0.006511


--------------------------------------------------------------------------------------------------------



  FREE ENERGIE OF THE ION-ELECTRON SYSTEM (eV)
  ---------------------------------------------------
  free  energy   TOTEN  =      -115.65632829 eV

  energy  without entropy=     -115.62200640  energy(sigma->0) =     -115.64488766
 


--------------------------------------------------------------------------------------------------------


    POTLOK:  cpu time    0.0264: real time    0.0265


--------------------------------------------------------------------------------------------------------


     LOOP+:  cpu time  553.8619: real time  553.9606
    4ORBIT:  cpu time    0.0000: real time    0.0000

 total amount of memory used by VASP MPI-rank0   164315. kBytes
=======================================================================

   base      :      30000. kBytes
   nonlr-proj:       2362. kBytes
   fftplans  :       2967. kBytes
   grid      :       6321. kBytes
   one-center:         93. kBytes
   wavefun   :     122572. kBytes
 
  
  
 General timing and accounting informations for this job:
 ========================================================
  
                  Total CPU time used (sec):      561.706
                            User time (sec):      560.244
                          System time (sec):        1.462
                         Elapsed time (sec):      562.026
  
                   Maximum memory used (kb):      207144.
                   Average memory used (kb):           0.
  
                          Minor page faults:        85568
                          Major page faults:           32
                 Voluntary context switches:         1067
