       N       E                     dE             d eps       ncg     rms          rms(c)
DAV:   1     0.102908086526E+04    0.10291E+04   -0.58320E+04 19288   0.103E+03
DAV:   2    -0.305988465426E+02   -0.10597E+04   -0.98558E+03 24072   0.259E+02
DAV:   3    -0.121670901308E+03   -0.91072E+02   -0.84379E+02 23024   0.757E+01
DAV:   4    -0.126056434185E+03   -0.43855E+01   -0.41762E+01 25516   0.169E+01
DAV:   5    -0.126195109535E+03   -0.13868E+00   -0.13741E+00 26532   0.294E+00    0.431E+01
DAV:   6    -0.118524133280E+03    0.76710E+01   -0.35798E+01 22940   0.234E+01    0.320E+01
DAV:   7    -0.146853874861E+03   -0.28330E+02   -0.12763E+02 28236   0.607E+01    0.491E+01
DAV:   8    -0.126118976012E+03    0.20735E+02   -0.48414E+01 30404   0.442E+01    0.282E+01
DAV:   9    -0.126758213848E+03   -0.63924E+00   -0.59894E+01 27324   0.442E+01    0.284E+01
DAV:  10    -0.128308219383E+03   -0.15500E+01   -0.47377E+01 31324   0.497E+01    0.285E+01
DAV:  11    -0.117102495094E+03    0.11206E+02   -0.23322E+01 27568   0.184E+01    0.113E+01
DAV:  12    -0.117267121611E+03   -0.16463E+00   -0.72060E+00 27604   0.126E+01    0.127E+01
DAV:  13    -0.116007073959E+03    0.12600E+01   -0.64759E+00 27404   0.826E+00    0.571E+00
DAV:  14    -0.115856917632E+03    0.15016E+00   -0.14504E+00 21612   0.509E+00    0.393E+00
DAV:  15    -0.115838002469E+03    0.18915E-01   -0.80273E-02 22324   0.112E+00    0.346E+00
DAV:  16    -0.115805239897E+03    0.32763E-01   -0.59511E-02 28784   0.105E+00    0.255E+00
DAV:  17    -0.115791744905E+03    0.13495E-01   -0.11067E-01 21744   0.133E+00    0.173E+00
DAV:  18    -0.115780381245E+03    0.11364E-01   -0.37003E-02 21332   0.875E-01    0.125E+00
DAV:  19    -0.115778243342E+03    0.21379E-02   -0.79482E-03 21964   0.387E-01    0.102E+00
DAV:  20    -0.115774437182E+03    0.38062E-02   -0.50289E-03 23976   0.270E-01    0.730E-01
DAV:  21    -0.115771677290E+03    0.27599E-02   -0.32254E-03 27776   0.263E-01    0.466E-01
DAV:  22    -0.115771305005E+03    0.37228E-03   -0.13950E-03 21384   0.169E-01    0.389E-01
DAV:  23    -0.115770836236E+03    0.46877E-03   -0.82519E-04 22616   0.141E-01    0.319E-01
DAV:  24    -0.115770085795E+03    0.75044E-03   -0.10092E-03 26112   0.135E-01    0.169E-01
DAV:  25    -0.115769904235E+03    0.18156E-03   -0.51838E-04 25796   0.976E-02    0.809E-02
DAV:  26    -0.115769933873E+03   -0.29638E-04   -0.13829E-04 22364   0.517E-02    0.471E-02
DAV:  27    -0.115770026680E+03   -0.92807E-04   -0.58816E-05 13024   0.350E-02    0.369E-02
DAV:  28    -0.115770163051E+03   -0.13637E-03   -0.46532E-05 14636   0.284E-02    0.277E-02
DAV:  29    -0.115770317941E+03   -0.15489E-03   -0.20309E-05 12392   0.194E-02    0.267E-02
DAV:  30    -0.115770487302E+03   -0.16936E-03   -0.12094E-05 12516   0.119E-02    0.277E-02
DAV:  31    -0.115770600517E+03   -0.11321E-03   -0.50505E-06 12320   0.864E-03    0.230E-02
DAV:  32    -0.115770682678E+03   -0.82161E-04   -0.37234E-06 12320   0.779E-03    0.185E-02
DAV:  33    -0.115770747584E+03   -0.64906E-04   -0.47705E-06 12296   0.761E-03    0.122E-02
DAV:  34    -0.115770797492E+03   -0.49908E-04   -0.51335E-06 12308   0.992E-03    0.519E-03
DAV:  35    -0.115770816241E+03   -0.18749E-04   -0.25300E-06 12144   0.510E-03    0.518E-03
DAV:  36    -0.115770820131E+03   -0.38905E-05   -0.45700E-07 10788   0.247E-03
   1 F= -.11576555E+03 E0= -.11575297E+03  d E =-.377621E-01
