       N       E                     dE             d eps       ncg     rms          rms(c)
DAV:   1     0.103068900563E+04    0.10307E+04   -0.58333E+04 19312   0.103E+03
DAV:   2    -0.277547869702E+02   -0.10584E+04   -0.98396E+03 23920   0.260E+02
DAV:   3    -0.119557086758E+03   -0.91802E+02   -0.84886E+02 22856   0.759E+01
DAV:   4    -0.124152723996E+03   -0.45956E+01   -0.43688E+01 25944   0.172E+01
DAV:   5    -0.124295154464E+03   -0.14243E+00   -0.14105E+00 26068   0.296E+00    0.433E+01
DAV:   6    -0.117855603205E+03    0.64396E+01   -0.31980E+01 22488   0.225E+01    0.319E+01
DAV:   7    -0.150715760780E+03   -0.32860E+02   -0.13390E+02 28788   0.646E+01    0.519E+01
DAV:   8    -0.127800842935E+03    0.22915E+02   -0.51341E+01 29744   0.433E+01    0.309E+01
DAV:   9    -0.126316240949E+03    0.14846E+01   -0.61946E+01 25700   0.420E+01    0.286E+01
DAV:  10    -0.128031777665E+03   -0.17155E+01   -0.45041E+01 31172   0.499E+01    0.286E+01
DAV:  11    -0.116430830867E+03    0.11601E+02   -0.21893E+01 27880   0.200E+01    0.116E+01
DAV:  12    -0.116550018119E+03   -0.11919E+00   -0.75355E+00 27028   0.132E+01    0.128E+01
DAV:  13    -0.115417673504E+03    0.11323E+01   -0.73485E+00 27380   0.906E+00    0.627E+00
DAV:  14    -0.115188320808E+03    0.22935E+00   -0.13301E+00 23696   0.513E+00    0.445E+00
DAV:  15    -0.115183096925E+03    0.52239E-02   -0.71286E-02 21968   0.982E-01    0.421E+00
DAV:  16    -0.115167095884E+03    0.16001E-01   -0.24084E-02 28472   0.615E-01    0.383E+00
DAV:  17    -0.115147066124E+03    0.20030E-01   -0.33043E-01 21592   0.211E+00    0.255E+00
DAV:  18    -0.115133088941E+03    0.13977E-01   -0.53234E-02 21392   0.107E+00    0.205E+00
DAV:  19    -0.115118252153E+03    0.14837E-01   -0.16546E-02 24960   0.514E-01    0.147E+00
DAV:  20    -0.115112265619E+03    0.59865E-02   -0.81129E-03 22600   0.428E-01    0.110E+00
DAV:  21    -0.115108509686E+03    0.37559E-02   -0.34125E-03 26380   0.243E-01    0.802E-01
DAV:  22    -0.115107852489E+03    0.65720E-03   -0.18817E-03 20916   0.195E-01    0.738E-01
DAV:  23    -0.115105950863E+03    0.19016E-02   -0.21355E-03 23704   0.189E-01    0.558E-01
DAV:  24    -0.115103560923E+03    0.23899E-02   -0.43595E-03 27572   0.256E-01    0.231E-01
DAV:  25    -0.115103306310E+03    0.25461E-03   -0.56371E-04 25636   0.898E-02    0.153E-01
DAV:  26    -0.115103282123E+03    0.24187E-04   -0.23230E-04 23652   0.688E-02    0.979E-02
DAV:  27    -0.115103374041E+03   -0.91919E-04   -0.25220E-04 21604   0.708E-02    0.526E-02
DAV:  28    -0.115103447450E+03   -0.73409E-04   -0.52910E-05 14552   0.302E-02    0.447E-02
DAV:  29    -0.115103561045E+03   -0.11360E-03   -0.24809E-05 12856   0.202E-02    0.344E-02
DAV:  30    -0.115103762837E+03   -0.20179E-03   -0.22189E-05 13904   0.166E-02    0.284E-02
DAV:  31    -0.115103868232E+03   -0.10540E-03   -0.91661E-06 12480   0.127E-02    0.243E-02
DAV:  32    -0.115103964656E+03   -0.96424E-04   -0.77172E-06 12592   0.105E-02    0.278E-02
DAV:  33    -0.115104071765E+03   -0.10711E-03   -0.11169E-05 12668   0.147E-02    0.168E-02
DAV:  34    -0.115104122132E+03   -0.50367E-04   -0.53593E-06 12488   0.783E-03    0.109E-02
DAV:  35    -0.115104144195E+03   -0.22063E-04   -0.22916E-06 12392   0.604E-03    0.582E-03
DAV:  36    -0.115104169300E+03   -0.25105E-04   -0.25815E-06 12332   0.515E-03    0.361E-03
DAV:  37    -0.115104179021E+03   -0.97213E-05   -0.88143E-07 12076   0.327E-03
   1 F= -.11508477E+03 E0= -.11507222E+03  d E =-.376732E-01
