       N       E                     dE             d eps       ncg     rms          rms(c)
DAV:   1     0.102981121883E+04    0.10298E+04   -0.58321E+04 19288   0.103E+03
DAV:   2    -0.284970488624E+02   -0.10583E+04   -0.98283E+03 23912   0.259E+02
DAV:   3    -0.120625257087E+03   -0.92128E+02   -0.85178E+02 23040   0.762E+01
DAV:   4    -0.125117613697E+03   -0.44924E+01   -0.42766E+01 25624   0.170E+01
DAV:   5    -0.125254317948E+03   -0.13670E+00   -0.13557E+00 25528   0.295E+00    0.436E+01
DAV:   6    -0.118309343273E+03    0.69450E+01   -0.35117E+01 23200   0.252E+01    0.331E+01
DAV:   7    -0.144250618446E+03   -0.25941E+02   -0.12363E+02 24496   0.629E+01    0.472E+01
DAV:   8    -0.133040617216E+03    0.11210E+02   -0.61109E+01 26620   0.484E+01    0.360E+01
DAV:   9    -0.126061721417E+03    0.69789E+01   -0.62304E+01 30716   0.499E+01    0.260E+01
DAV:  10    -0.123214209977E+03    0.28475E+01   -0.54746E+01 26976   0.386E+01    0.262E+01
DAV:  11    -0.116110257900E+03    0.71040E+01   -0.13766E+01 28540   0.209E+01    0.904E+00
DAV:  12    -0.116420031261E+03   -0.30977E+00   -0.74573E+00 28788   0.140E+01    0.106E+01
DAV:  13    -0.115414673935E+03    0.10054E+01   -0.24602E+00 25772   0.767E+00    0.385E+00
DAV:  14    -0.115384470245E+03    0.30204E-01   -0.54064E-01 22016   0.338E+00    0.267E+00
DAV:  15    -0.115356009340E+03    0.28461E-01   -0.23855E-01 25316   0.195E+00    0.193E+00
DAV:  16    -0.115346278253E+03    0.97311E-02   -0.81579E-02 23696   0.125E+00    0.148E+00
DAV:  17    -0.115334416993E+03    0.11861E-01   -0.43596E-02 26288   0.964E-01    0.640E-01
DAV:  18    -0.115331380207E+03    0.30368E-02   -0.18632E-02 21576   0.651E-01    0.608E-01
DAV:  19    -0.115329076975E+03    0.23032E-02   -0.70530E-03 21736   0.376E-01    0.438E-01
DAV:  20    -0.115328432380E+03    0.64460E-03   -0.86796E-03 27088   0.356E-01    0.321E-01
DAV:  21    -0.115327502545E+03    0.92984E-03   -0.11825E-03 21536   0.148E-01    0.232E-01
DAV:  22    -0.115327052273E+03    0.45027E-03   -0.21449E-03 23304   0.177E-01    0.190E-01
DAV:  23    -0.115326909727E+03    0.14255E-03   -0.57051E-04 24904   0.107E-01    0.110E-01
DAV:  24    -0.115326938047E+03   -0.28320E-04   -0.31384E-04 21396   0.672E-02    0.667E-02
DAV:  25    -0.115327023902E+03   -0.85855E-04   -0.10734E-04 20572   0.480E-02    0.426E-02
DAV:  26    -0.115327251314E+03   -0.22741E-03   -0.17778E-04 20932   0.540E-02    0.430E-02
DAV:  27    -0.115327326638E+03   -0.75324E-04   -0.30397E-05 14512   0.240E-02    0.406E-02
DAV:  28    -0.115327392667E+03   -0.66029E-04   -0.17421E-05 11912   0.205E-02    0.242E-02
DAV:  29    -0.115327581168E+03   -0.18850E-03   -0.24466E-05 14620   0.181E-02    0.242E-02
DAV:  30    -0.115327738236E+03   -0.15707E-03   -0.24807E-05 12720   0.197E-02    0.207E-02
DAV:  31    -0.115327808704E+03   -0.70467E-04   -0.70777E-06 12352   0.963E-03    0.177E-02
DAV:  32    -0.115327864462E+03   -0.55759E-04   -0.75679E-06 12400   0.985E-03    0.715E-03
DAV:  33    -0.115327905261E+03   -0.40798E-04   -0.24713E-06 12288   0.551E-03    0.562E-03
DAV:  34    -0.115327925816E+03   -0.20555E-04   -0.11265E-06 11944   0.387E-03    0.389E-03
DAV:  35    -0.115327944306E+03   -0.18490E-04   -0.12208E-06 12140   0.361E-03    0.313E-03
DAV:  36    -0.115327956752E+03   -0.12446E-04   -0.67942E-07 11668   0.304E-03    0.242E-03
DAV:  37    -0.115327967078E+03   -0.10326E-04   -0.88067E-07 11636   0.380E-03    0.276E-03
DAV:  38    -0.115327969287E+03   -0.22089E-05   -0.18631E-07 10784   0.170E-03
   1 F= -.11532046E+03 E0= -.11531211E+03  d E =-.250646E-01
