 vasp.5.4.4.18Apr17-6-g9f103f2a35 (build Apr 28 2017 10:53:45) complex          
  
 executed on             LinuxIFC date 2019.07.18  18:04:28
 running on   16 total cores
 distrk:  each k-point on   16 cores,    1 groups
 distr:  one band on NCORES_PER_BAND=   4 cores,    4 groups


--------------------------------------------------------------------------------------------------------


 INCAR:
 POTCAR:    PAW_PBE Au 04Oct2007                  
 POTCAR:    PAW_PBE C 08Apr2002                   
 POTCAR:    PAW_PBE H 15Jun2001                   
 POTCAR:    PAW_PBE Ir 06Sep2000                  
 POTCAR:    PAW_PBE Pt 04Feb2005                  
 POTCAR:    PAW_PBE Au 04Oct2007                  
   VRHFIN =Au: s1d10                                                            
   LEXCH  = PE                                                                  
   EATOM  =   926.0867 eV,   68.0654 Ry                                         
                                                                                
   TITEL  = PAW_PBE Au 04Oct2007                                                
   LULTRA =        F    use ultrasoft PP ?                                      
   IUNSCR =        1    unscreen: 0-lin 1-nonlin 2-no                           
   RPACOR =    2.330    partial core radius                                     
   POMASS =  196.966; ZVAL   =   11.000    mass and valenz                      
   RCORE  =    2.500    outmost cutoff radius                                   
   RWIGS  =    2.840; RWIGS  =    1.503    wigner-seitz radius (au A)           
   ENMAX  =  229.943; ENMIN  =  172.457 eV                                      
   ICORE  =        3    local potential                                         
   LCOR   =        T    correct aug charges                                     
   LPAW   =        T    paw PP                                                  
   EAUG   =  356.670                                                            
   DEXC   =    0.000                                                            
   RMAX   =    2.562    core radius for proj-oper                               
   RAUG   =    1.300    factor for augmentation sphere                          
   RDEP   =    2.598    radius for radial grids                                 
   RDEPT  =    2.193    core radius for aug-charge                              
                                                                                
   Atomic configuration                                                         
   16 entries                                                                   
     n  l   j            E        occ.                                          
     1  0  0.50    -80748.5001   2.0000                                         
     2  0  0.50    -14244.7466   2.0000                                         
     2  1  1.50    -12310.9591   6.0000                                         
     3  0  0.50     -3362.1768   2.0000                                         
     3  1  1.50     -2801.5463   6.0000                                         
     3  2  2.50     -2203.8206  10.0000                                         
     4  0  0.50      -729.8168   2.0000                                         
     4  1  1.50      -546.0527   6.0000                                         
     4  2  2.50      -325.7302  10.0000                                         
     4  3  3.50       -81.1472  14.0000                                         
     5  0  0.50      -108.3201   2.0000                                         
     5  1  1.50       -59.7479   6.0000                                         
     5  2  2.50        -6.8783  10.0000                                         
     6  0  0.50        -5.7602   1.0000                                         
     6  1  1.50        -6.8029   0.0000                                         
     5  3  2.50        -1.3606   0.0000                                         
   Description                                                                  
     l       E           TYP  RCUT    TYP  RCUT                                 
     2     -6.8782861     23  2.500                                             
     2     -8.2388687     23  2.500                                             
     0     -5.7601759     23  2.500                                             
     0     -0.8493231     23  2.500                                             
     1     -2.7211652     23  2.500                                             
     1     27.2116520     23  2.500                                             
     3     -1.3605826     23  2.500                                             
  local pseudopotential read in
  partial core-charges read in
  partial kinetic energy density read in
  atomic valenz-charges read in
  non local Contribution for L=           2  read in
    real space projection operators read in
  non local Contribution for L=           2  read in
    real space projection operators read in
  non local Contribution for L=           0  read in
    real space projection operators read in
  non local Contribution for L=           0  read in
    real space projection operators read in
  non local Contribution for L=           1  read in
    real space projection operators read in
  non local Contribution for L=           1  read in
    real space projection operators read in
    PAW grid and wavefunctions read in
 
   number of l-projection  operators is LMAX  =           6
   number of lm-projection operators is LMMAX =          18
 
 POTCAR:    PAW_PBE C 08Apr2002                   
   VRHFIN =C: s2p2                                                              
   LEXCH  = PE                                                                  
   EATOM  =   147.1560 eV,   10.8157 Ry                                         
                                                                                
   TITEL  = PAW_PBE C 08Apr2002                                                 
   LULTRA =        F    use ultrasoft PP ?                                      
   IUNSCR =        1    unscreen: 0-lin 1-nonlin 2-no                           
   RPACOR =    1.200    partial core radius                                     
   POMASS =   12.011; ZVAL   =    4.000    mass and valenz                      
   RCORE  =    1.500    outmost cutoff radius                                   
   RWIGS  =    1.630; RWIGS  =    0.863    wigner-seitz radius (au A)           
   ENMAX  =  400.000; ENMIN  =  300.000 eV                                      
   ICORE  =        2    local potential                                         
   LCOR   =        T    correct aug charges                                     
   LPAW   =        T    paw PP                                                  
   EAUG   =  644.873                                                            
   DEXC   =    0.000                                                            
   RMAX   =    1.529    core radius for proj-oper                               
   RAUG   =    1.300    factor for augmentation sphere                          
   RDEP   =    1.501    radius for radial grids                                 
   RDEPT  =    1.300    core radius for aug-charge                              
                                                                                
   Atomic configuration                                                         
    4 entries                                                                   
     n  l   j            E        occ.                                          
     1  0  0.50      -273.3789   2.0000                                         
     2  0  0.50       -13.7508   2.0000                                         
     2  1  0.50        -5.2854   2.0000                                         
     3  2  1.50        -5.4423   0.0000                                         
   Description                                                                  
     l       E           TYP  RCUT    TYP  RCUT                                 
     0    -13.7508458     23  1.200                                             
     0     -8.2022199     23  1.200                                             
     1     -5.2854383     23  1.500                                             
     1     34.0145650     23  1.500                                             
     2     -5.4423304      7  1.500                                             
  local pseudopotential read in
  partial core-charges read in
  partial kinetic energy density read in
  atomic valenz-charges read in
  non local Contribution for L=           0  read in
    real space projection operators read in
  non local Contribution for L=           0  read in
    real space projection operators read in
  non local Contribution for L=           1  read in
    real space projection operators read in
  non local Contribution for L=           1  read in
    real space projection operators read in
    PAW grid and wavefunctions read in
 
   number of l-projection  operators is LMAX  =           4
   number of lm-projection operators is LMMAX =           8
 
 POTCAR:    PAW_PBE H 15Jun2001                   
   VRHFIN =H: ultrasoft test                                                    
   LEXCH  = PE                                                                  
   EATOM  =    12.4884 eV,    0.9179 Ry                                         
                                                                                
   TITEL  = PAW_PBE H 15Jun2001                                                 
   LULTRA =        F    use ultrasoft PP ?                                      
   IUNSCR =        0    unscreen: 0-lin 1-nonlin 2-no                           
   RPACOR =    0.000    partial core radius                                     
   POMASS =    1.000; ZVAL   =    1.000    mass and valenz                      
   RCORE  =    1.100    outmost cutoff radius                                   
   RWIGS  =    0.700; RWIGS  =    0.370    wigner-seitz radius (au A)           
   ENMAX  =  250.000; ENMIN  =  200.000 eV                                      
   RCLOC  =    0.701    cutoff for local pot                                    
   LCOR   =        T    correct aug charges                                     
   LPAW   =        T    paw PP                                                  
   EAUG   =  400.000                                                            
   RMAX   =    1.123    core radius for proj-oper                               
   RAUG   =    1.200    factor for augmentation sphere                          
   RDEP   =    1.112    radius for radial grids                                 
   RDEPT  =    0.926    core radius for aug-charge                              
                                                                                
   Atomic configuration                                                         
    2 entries                                                                   
     n  l   j            E        occ.                                          
     1  0  0.50        -6.4927   1.0000                                         
     2  1  0.50        -3.4015   0.0000                                         
   Description                                                                  
     l       E           TYP  RCUT    TYP  RCUT                                 
     0     -6.4927494     23  1.100                                             
     0      6.8029130     23  1.100                                             
     1     -4.0817478     23  1.100                                             
  local pseudopotential read in
  atomic valenz-charges read in
  non local Contribution for L=           0  read in
    real space projection operators read in
  non local Contribution for L=           0  read in
    real space projection operators read in
  non local Contribution for L=           1  read in
    real space projection operators read in
    PAW grid and wavefunctions read in
 
   number of l-projection  operators is LMAX  =           3
   number of lm-projection operators is LMMAX =           5
 
 POTCAR:    PAW_PBE Ir 06Sep2000                  
   VRHFIN =Ir: s1d8                                                             
   LEXCH  = PE                                                                  
   EATOM  =   560.1833 eV,   41.1723 Ry                                         
                                                                                
   TITEL  = PAW_PBE Ir 06Sep2000                                                
   LULTRA =        F    use ultrasoft PP ?                                      
   IUNSCR =        1    unscreen: 0-lin 1-nonlin 2-no                           
   RPACOR =    2.250    partial core radius                                     
   POMASS =  192.220; ZVAL   =    9.000    mass and valenz                      
   RCORE  =    2.600    outmost cutoff radius                                   
   RWIGS  =    2.690; RWIGS  =    1.423    wigner-seitz radius (au A)           
   ENMAX  =  210.864; ENMIN  =  158.148 eV                                      
   RCLOC  =    1.857    cutoff for local pot                                    
   LCOR   =        T    correct aug charges                                     
   LPAW   =        T    paw PP                                                  
   EAUG   =  318.962                                                            
   DEXC   =    0.000                                                            
   RMAX   =    2.667    core radius for proj-oper                               
   RAUG   =    1.300    factor for augmentation sphere                          
   RDEP   =    2.748    radius for radial grids                                 
   RDEPT  =    2.300    core radius for aug-charge                              
                                                                                
   Atomic configuration                                                         
   16 entries                                                                   
     n  l   j            E        occ.                                          
     1  0  0.50    -76100.0449   2.0000                                         
     2  0  0.50    -13308.1683   2.0000                                         
     2  1  1.50    -11558.0021   6.0000                                         
     3  0  0.50     -3110.7274   2.0000                                         
     3  1  1.50     -2599.2109   6.0000                                         
     3  2  2.50     -2037.1515  10.0000                                         
     4  0  0.50      -661.6001   2.0000                                         
     4  1  1.50      -493.8981   6.0000                                         
     4  2  2.50      -288.1909  10.0000                                         
     4  3  3.50       -59.5718  14.0000                                         
     5  0  0.50       -95.3879   2.0000                                         
     5  1  1.50       -52.2747   6.0000                                         
     5  2  2.50        -5.4180   8.0000                                         
     6  0  0.50        -5.5479   1.0000                                         
     6  1  1.50        -6.8029   0.0000                                         
     5  3  2.50        -1.3606   0.0000                                         
   Description                                                                  
     l       E           TYP  RCUT    TYP  RCUT                                 
     2     -5.4179967     23  2.600                                             
     2     -6.7785793     23  2.600                                             
     0     -5.5478636     23  2.600                                             
     0      2.2542272     23  2.600                                             
     1     -2.7211652     23  2.600                                             
     1     20.4087390     23  2.600                                             
  local pseudopotential read in
  partial core-charges read in
  partial kinetic energy density read in
  atomic valenz-charges read in
  non local Contribution for L=           2  read in
    real space projection operators read in
  non local Contribution for L=           2  read in
    real space projection operators read in
  non local Contribution for L=           0  read in
    real space projection operators read in
  non local Contribution for L=           0  read in
    real space projection operators read in
  non local Contribution for L=           1  read in
    real space projection operators read in
  non local Contribution for L=           1  read in
    real space projection operators read in
    PAW grid and wavefunctions read in
 
   number of l-projection  operators is LMAX  =           6
   number of lm-projection operators is LMMAX =          18
 
 POTCAR:    PAW_PBE Pt 04Feb2005                  
   VRHFIN =Pt: s1d9                                                             
   LEXCH  = PE                                                                  
   EATOM  =   729.1176 eV,   53.5886 Ry                                         
                                                                                
   TITEL  = PAW_PBE Pt 04Feb2005                                                
   LULTRA =        F    use ultrasoft PP ?                                      
   IUNSCR =        1    unscreen: 0-lin 1-nonlin 2-no                           
   RPACOR =    2.330    partial core radius                                     
   POMASS =  195.080; ZVAL   =   10.000    mass and valenz                      
   RCORE  =    2.600    outmost cutoff radius                                   
   RWIGS  =    2.750; RWIGS  =    1.455    wigner-seitz radius (au A)           
   ENMAX  =  230.283; ENMIN  =  172.712 eV                                      
   ICORE  =        3    local potential                                         
   LCOR   =        T    correct aug charges                                     
   LPAW   =        T    paw PP                                                  
   EAUG   =  358.966                                                            
   DEXC   =    0.000                                                            
   RMAX   =    2.658    core radius for proj-oper                               
   RAUG   =    1.300    factor for augmentation sphere                          
   RDEP   =    2.761    radius for radial grids                                 
   RDEPT  =    2.203    core radius for aug-charge                              
                                                                                
   Atomic configuration                                                         
   16 entries                                                                   
     n  l   j            E        occ.                                          
     1  0  0.50    -78401.1885   2.0000                                         
     2  0  0.50    -13770.7750   2.0000                                         
     2  1  1.50    -11931.0468   6.0000                                         
     3  0  0.50     -3234.7234   2.0000                                         
     3  1  1.50     -2699.2216   6.0000                                         
     3  2  2.50     -2119.5714  10.0000                                         
     4  0  0.50      -695.1528   2.0000                                         
     4  1  1.50      -519.6034   6.0000                                         
     4  2  2.50      -306.6786  10.0000                                         
     4  3  3.50       -70.1041  14.0000                                         
     5  0  0.50      -101.7747   2.0000                                         
     5  1  1.50       -55.9873   6.0000                                         
     5  2  2.50        -6.1423   9.0000                                         
     6  0  0.50        -5.6573   1.0000                                         
     6  1  1.50        -6.8029   0.0000                                         
     5  3  2.50        -1.3606   0.0000                                         
   Description                                                                  
     l       E           TYP  RCUT    TYP  RCUT                                 
     2     -6.1423404     23  2.500                                             
     2     -7.5029230     23  2.500                                             
     0     -5.6573207     23  2.500                                             
     0      0.7416693     23  2.500                                             
     1     -2.7211652     23  2.600                                             
     1     20.4087390     23  2.600                                             
     3     -1.3605826     23  2.500                                             
  local pseudopotential read in
  partial core-charges read in
  partial kinetic energy density read in
  atomic valenz-charges read in
  non local Contribution for L=           2  read in
    real space projection operators read in
  non local Contribution for L=           2  read in
    real space projection operators read in
  non local Contribution for L=           0  read in
    real space projection operators read in
  non local Contribution for L=           0  read in
    real space projection operators read in
  non local Contribution for L=           1  read in
    real space projection operators read in
  non local Contribution for L=           1  read in
    real space projection operators read in
    PAW grid and wavefunctions read in
 
   number of l-projection  operators is LMAX  =           6
   number of lm-projection operators is LMMAX =          18
 
 Optimization of the real space projectors (new method)

 maximal supplied QI-value         = 15.12
 optimisation between [QCUT,QGAM] = [  9.52, 19.05] = [ 25.40,101.61] Ry 
 Optimized for a Real-space Cutoff    1.57 Angstroem

   l    n(q)    QCUT    max X(q) W(low)/X(q) W(high)/X(q)  e(spline) 
   2      8     9.524    60.898    0.38E-03    0.43E-04    0.84E-07
   2      8     9.524    58.894    0.38E-03    0.47E-04    0.88E-07
   0      9     9.524   109.617    0.60E-04    0.64E-04    0.80E-07
   0      9     9.524    75.026    0.59E-04    0.62E-04    0.78E-07
   1      8     9.524    16.344    0.99E-04    0.18E-03    0.87E-07
   1      8     9.524    10.160    0.78E-04    0.15E-03    0.74E-07
 Optimization of the real space projectors (new method)

 maximal supplied QI-value         = 25.13
 optimisation between [QCUT,QGAM] = [  9.55, 19.10] = [ 25.54,102.17] Ry 
 Optimized for a Real-space Cutoff    1.39 Angstroem

   l    n(q)    QCUT    max X(q) W(low)/X(q) W(high)/X(q)  e(spline) 
   0      8     9.551   115.676    0.39E-03    0.54E-03    0.29E-06
   0      8     9.551    87.132    0.39E-03    0.54E-03    0.28E-06
   1      7     9.551     4.429    0.35E-03    0.51E-04    0.29E-06
   1      7     9.551     2.733    0.22E-03    0.42E-04    0.31E-06
 Optimization of the real space projectors (new method)

 maximal supplied QI-value         = 34.20
 optimisation between [QCUT,QGAM] = [  9.58, 19.15] = [ 25.68,102.74] Ry 
 Optimized for a Real-space Cutoff    1.31 Angstroem

   l    n(q)    QCUT    max X(q) W(low)/X(q) W(high)/X(q)  e(spline) 
   0      7     9.577    19.460    0.33E-03    0.12E-03    0.35E-06
   0      7     9.577    12.209    0.33E-03    0.11E-03    0.33E-06
   1      7     9.577     4.655    0.39E-03    0.14E-02    0.33E-06
 Optimization of the real space projectors (new method)

 maximal supplied QI-value         = 14.36
 optimisation between [QCUT,QGAM] = [  9.48, 19.10] = [ 25.16,102.17] Ry 
 Optimized for a Real-space Cutoff    1.57 Angstroem

   l    n(q)    QCUT    max X(q) W(low)/X(q) W(high)/X(q)  e(spline) 
   2      8     9.479   134.116    0.18E-03    0.75E-03    0.26E-06
   2      8     9.479   130.192    0.18E-03    0.75E-03    0.27E-06
   0      9     9.479    60.310    0.39E-03    0.24E-03    0.63E-07
   0      9     9.479    39.218    0.36E-03    0.22E-03    0.59E-07
   1      8     9.479    18.439    0.20E-03    0.15E-03    0.16E-06
   1      8     9.479    12.760    0.16E-03    0.11E-03    0.13E-06
 Optimization of the real space projectors (new method)

 maximal supplied QI-value         = 14.36
 optimisation between [QCUT,QGAM] = [  9.48, 19.10] = [ 25.16,102.17] Ry 
 Optimized for a Real-space Cutoff    1.57 Angstroem

   l    n(q)    QCUT    max X(q) W(low)/X(q) W(high)/X(q)  e(spline) 
   2      8     9.479    66.195    0.35E-03    0.53E-04    0.87E-07
   2      8     9.479    64.643    0.35E-03    0.57E-04    0.91E-07
   0      9     9.479    95.520    0.50E-04    0.62E-04    0.81E-07
   0      9     9.479    63.403    0.49E-04    0.60E-04    0.78E-07
   1      8     9.479    19.961    0.10E-03    0.87E-04    0.11E-06
   1      8     9.479    13.289    0.88E-04    0.71E-04    0.97E-07
  PAW_PBE Au 04Oct2007                  :
 energy of atom  1       EATOM= -926.0867
 kinetic energy error for atom=    0.0152 (will be added to EATOM!!)
  PAW_PBE C 08Apr2002                   :
 energy of atom  2       EATOM= -147.1560
 kinetic energy error for atom=    0.0854 (will be added to EATOM!!)
  PAW_PBE H 15Jun2001                   :
 energy of atom  3       EATOM=  -12.4884
 kinetic energy error for atom=    0.0203 (will be added to EATOM!!)
  PAW_PBE Ir 06Sep2000                  :
 energy of atom  4       EATOM= -560.1833
 kinetic energy error for atom=    0.0056 (will be added to EATOM!!)
  PAW_PBE Pt 04Feb2005                  :
 energy of atom  5       EATOM= -729.1176
 kinetic energy error for atom=    0.0144 (will be added to EATOM!!)
 
 
 POSCAR: Au  C  H Ir Pt                          
  positions in cartesian coordinates
  No initial velocities read in
 exchange correlation table for  LEXCH =        8
   RHO(1)=    0.500       N(1)  =     2000
   RHO(2)=  100.500       N(2)  =     4000
 


--------------------------------------------------------------------------------------------------------


 ion  position               nearest neighbor table
   1  0.840  0.335  0.545-  20 2.75  21 2.75  13 2.78   8 2.78  13 2.78  17 2.80  21 2.81  20 2.81
                             9 2.83  16 2.83  14 2.84  11 3.10
   2  0.997  0.982  0.699-   5 1.10   6 1.10   4 1.10  11 2.09
   3  0.046  0.260  0.656-   9 1.69  11 1.79
   4  0.877  0.193  0.712-   2 1.10
   5  0.898  0.860  0.707-   2 1.10
   6  0.213  0.882  0.710-   2 1.10
   7  0.500  0.005  0.394-  19 2.77  12 2.77  18 2.78  18 2.78  12 2.78  19 2.79  14 2.82  16 2.83
                            17 2.83
   8  0.505  0.502  0.619-   9 2.76  10 2.77  20 2.78   1 2.78  10 2.79  13 2.79  11 2.79   9 2.80
                            11 2.82
   9  0.006  0.506  0.620-   3 1.69  11 2.73  10 2.75   8 2.76   8 2.80  21 2.80  10 2.81   1 2.83
                            13 2.84  11 2.86
  10  0.510  0.998  0.619-   9 2.75  21 2.76  11 2.76  20 2.77   8 2.77   8 2.79   9 2.81  13 2.82
                            11 2.84
  11  0.003  0.996  0.631-   3 1.79   2 2.09   9 2.73  10 2.76   8 2.79   8 2.82  10 2.84   9 2.86
                            21 3.04  20 3.07   1 3.10
  12  0.002  0.004  0.395-  18 2.77   7 2.77  19 2.78  19 2.78   7 2.78  18 2.79  16 2.81  15 2.83
                            17 2.84
  13  0.339  0.337  0.544-   1 2.78  20 2.78  21 2.78  21 2.78   1 2.78  20 2.78  17 2.79  15 2.79
                             8 2.79  16 2.79  10 2.82   9 2.84
  14  0.670  0.672  0.470-  16 2.78  15 2.78  17 2.78  17 2.78  16 2.78  15 2.78  19 2.82   7 2.82
                            20 2.84  18 2.84   1 2.84  21 2.86
  15  0.169  0.672  0.471-  14 2.78  17 2.78  16 2.78  16 2.78  17 2.78  14 2.78  13 2.79  21 2.80
                            20 2.81  12 2.83  18 2.84  19 2.85
  16  0.669  0.173  0.470-  14 2.78  17 2.78  15 2.78  15 2.78  17 2.78  14 2.78  13 2.79  12 2.81
                             1 2.83  18 2.83   7 2.83  21 2.84
  17  0.170  0.172  0.470-  15 2.78  16 2.78  14 2.78  15 2.78  14 2.78  16 2.78  13 2.79   1 2.80
                            20 2.81   7 2.83  19 2.84  12 2.84
  18  0.499  0.505  0.394-  19 2.77  12 2.77   7 2.78   7 2.78  12 2.79  19 2.79  16 2.83  14 2.84
                            15 2.84
  19  0.002  0.504  0.394-  18 2.77   7 2.77  12 2.78  12 2.78   7 2.79  18 2.79  14 2.82  17 2.84
                            15 2.85
  20  0.335  0.839  0.546-  21 2.74   1 2.75  10 2.77  13 2.78   8 2.78  13 2.78   1 2.81  15 2.81
                            21 2.81  17 2.81  14 2.84  11 3.07
  21  0.842  0.839  0.546-  20 2.74   1 2.75  10 2.76  13 2.78  13 2.78   9 2.80  15 2.80   1 2.81
                            20 2.81  16 2.84  14 2.86  11 3.04
 
  LATTYP: Found a hexagonal cell.
 ALAT       =     5.5578593001
 C/A-ratio  =     5.5429542221
  
  Lattice vectors:
  
 A1 = (   2.7789296501,  -4.8132473446,   0.0000000000)
 A2 = (  -5.5578593001,   0.0000000000,   0.0000000000)
 A3 = (   0.0000000000,   0.0000000000, -30.8069596737)


Analysis of symmetry for initial positions (statically):
=====================================================================
 Subroutine PRICEL returns:
 Original cell was already a primitive cell.
 

 Routine SETGRP: Setting up the symmetry group for a 
 hexagonal supercell.


 Subroutine GETGRP returns: Found  1 space group operations
 (whereof  1 operations were pure point group operations)
 out of a pool of 24 trial point group operations.


The static configuration has the point symmetry C_1 .


Analysis of symmetry for dynamics (positions and initial velocities):
=====================================================================
 Subroutine PRICEL returns:
 Original cell was already a primitive cell.
 

 Routine SETGRP: Setting up the symmetry group for a 
 hexagonal supercell.


 Subroutine GETGRP returns: Found  1 space group operations
 (whereof  1 operations were pure point group operations)
 out of a pool of 24 trial point group operations.


The dynamic configuration has the point symmetry C_1 .


 Subroutine INISYM returns: Found  1 space group operations
 (whereof  1 operations are pure point group operations),
 and found     1 'primitive' translations

 
 
 KPOINTS: 0.7.Ir1.Au8                             

Automatic generation of k-mesh.
Space group operators:
 irot       det(A)        alpha          n_x          n_y          n_z        tau_x        tau_y        tau_z
    1     1.000000     0.000001     1.000000     0.000000     0.000000     0.000000     0.000000     0.000000
 
 Subroutine IBZKPT returns following result:
 ===========================================
 
 Found     96 irreducible k-points:
 
 Following reciprocal coordinates:
            Coordinates               Weight
  0.062500  0.062500  0.000000     16.000000
  0.000000  0.062500  0.000000     16.000000
 -0.062500  0.000000  0.000000     16.000000
  0.187500  0.062500  0.000000     16.000000
  0.125000  0.187500  0.000000     16.000000
 -0.062500  0.125000  0.000000     16.000000
  0.125000 -0.062500  0.000000     16.000000
 -0.062500 -0.187500  0.000000     16.000000
 -0.187500 -0.125000  0.000000     16.000000
  0.312500  0.062500  0.000000     16.000000
  0.250000  0.312500  0.000000     16.000000
 -0.062500  0.250000  0.000000     16.000000
  0.250000 -0.062500  0.000000     16.000000
 -0.062500 -0.312500  0.000000     16.000000
 -0.312500 -0.250000  0.000000     16.000000
  0.437500  0.062500  0.000000     16.000000
  0.375000  0.437500  0.000000     16.000000
 -0.062500  0.375000  0.000000     16.000000
  0.375000 -0.062500  0.000000     16.000000
 -0.062500 -0.437500  0.000000     16.000000
 -0.437500 -0.375000  0.000000     16.000000
 -0.437500  0.062500  0.000000     16.000000
  0.500000 -0.437500  0.000000     16.000000
 -0.062500  0.500000  0.000000     16.000000
  0.500000 -0.062500  0.000000     16.000000
 -0.062500  0.437500  0.000000     16.000000
  0.437500  0.500000  0.000000     16.000000
 -0.312500  0.062500  0.000000     16.000000
 -0.375000 -0.312500  0.000000     16.000000
 -0.062500 -0.375000  0.000000     16.000000
 -0.375000 -0.062500  0.000000     16.000000
 -0.062500  0.312500  0.000000     16.000000
  0.312500  0.375000  0.000000     16.000000
 -0.187500  0.062500  0.000000     16.000000
 -0.250000 -0.187500  0.000000     16.000000
 -0.062500 -0.250000  0.000000     16.000000
 -0.250000 -0.062500  0.000000     16.000000
 -0.062500  0.187500  0.000000     16.000000
  0.187500  0.250000  0.000000     16.000000
 -0.062500  0.062500  0.000000     16.000000
 -0.125000 -0.062500  0.000000     16.000000
 -0.062500 -0.125000  0.000000     16.000000
  0.187500  0.187500  0.000000     16.000000
  0.000000  0.187500  0.000000     16.000000
 -0.187500  0.000000  0.000000     16.000000
  0.312500  0.187500  0.000000     16.000000
  0.125000  0.312500  0.000000     16.000000
 -0.187500  0.125000  0.000000     16.000000
  0.125000 -0.187500  0.000000     16.000000
 -0.187500 -0.312500  0.000000     16.000000
 -0.312500 -0.125000  0.000000     16.000000
  0.437500  0.187500  0.000000     16.000000
  0.250000  0.437500  0.000000     16.000000
 -0.187500  0.250000  0.000000     16.000000
  0.250000 -0.187500  0.000000     16.000000
 -0.187500 -0.437500  0.000000     16.000000
 -0.437500 -0.250000  0.000000     16.000000
 -0.437500  0.187500  0.000000     16.000000
  0.375000 -0.437500  0.000000     16.000000
 -0.187500  0.375000  0.000000     16.000000
  0.375000 -0.187500  0.000000     16.000000
 -0.187500  0.437500  0.000000     16.000000
  0.437500 -0.375000  0.000000     16.000000
 -0.312500  0.187500  0.000000     16.000000
  0.500000 -0.312500  0.000000     16.000000
 -0.187500  0.500000  0.000000     16.000000
  0.500000 -0.187500  0.000000     16.000000
 -0.187500  0.312500  0.000000     16.000000
  0.312500  0.500000  0.000000     16.000000
 -0.187500  0.187500  0.000000     16.000000
 -0.375000 -0.187500  0.000000     16.000000
 -0.187500 -0.375000  0.000000     16.000000
  0.312500  0.312500  0.000000     16.000000
  0.000000  0.312500  0.000000     16.000000
 -0.312500  0.000000  0.000000     16.000000
  0.437500  0.312500  0.000000     16.000000
  0.125000  0.437500  0.000000     16.000000
 -0.312500  0.125000  0.000000     16.000000
  0.125000 -0.312500  0.000000     16.000000
 -0.312500 -0.437500  0.000000     16.000000
 -0.437500 -0.125000  0.000000     16.000000
 -0.437500  0.312500  0.000000     16.000000
  0.250000 -0.437500  0.000000     16.000000
 -0.312500  0.250000  0.000000     16.000000
  0.250000 -0.312500  0.000000     16.000000
 -0.312500  0.437500  0.000000     16.000000
  0.437500 -0.250000  0.000000     16.000000
 -0.312500  0.312500  0.000000     16.000000
  0.375000 -0.312500  0.000000     16.000000
 -0.312500  0.375000  0.000000     16.000000
  0.437500  0.437500  0.000000     16.000000
  0.000000  0.437500  0.000000     16.000000
 -0.437500 -0.000000  0.000000     16.000000
 -0.437500  0.437500  0.000000     16.000000
  0.125000 -0.437500  0.000000     16.000000
 -0.437500  0.125000  0.000000     16.000000
 
 Following cartesian coordinates:
            Coordinates               Weight
  0.011245  0.006492  0.000000     16.000000
  0.000000  0.012985  0.000000     16.000000
 -0.011245  0.006492  0.000000     16.000000
  0.033736 -0.006492  0.000000     16.000000
  0.022491  0.025970  0.000000     16.000000
 -0.011245  0.032462  0.000000     16.000000
  0.022491 -0.025970  0.000000     16.000000
 -0.011245 -0.032462  0.000000     16.000000
 -0.033736 -0.006492  0.000000     16.000000
  0.056227 -0.019477  0.000000     16.000000
  0.044981  0.038955  0.000000     16.000000
 -0.011245  0.058432  0.000000     16.000000
  0.044981 -0.038955  0.000000     16.000000
 -0.011245 -0.058432  0.000000     16.000000
 -0.056227 -0.019477  0.000000     16.000000
  0.078717 -0.032462  0.000000     16.000000
  0.067472  0.051940  0.000000     16.000000
 -0.011245  0.084402  0.000000     16.000000
  0.067472 -0.051940  0.000000     16.000000
 -0.011245 -0.084402  0.000000     16.000000
 -0.078717 -0.032462  0.000000     16.000000
 -0.078717  0.058432  0.000000     16.000000
  0.089963 -0.142835  0.000000     16.000000
 -0.011245  0.110372  0.000000     16.000000
  0.089963 -0.064925  0.000000     16.000000
 -0.011245  0.097387  0.000000     16.000000
  0.078717  0.058432  0.000000     16.000000
 -0.056227  0.045447  0.000000     16.000000
 -0.067472 -0.025970  0.000000     16.000000
 -0.011245 -0.071417  0.000000     16.000000
 -0.067472  0.025970  0.000000     16.000000
 -0.011245  0.071417  0.000000     16.000000
  0.056227  0.045447  0.000000     16.000000
 -0.033736  0.032462  0.000000     16.000000
 -0.044981 -0.012985  0.000000     16.000000
 -0.011245 -0.045447  0.000000     16.000000
 -0.044981  0.012985  0.000000     16.000000
 -0.011245  0.045447  0.000000     16.000000
  0.033736  0.032462  0.000000     16.000000
 -0.011245  0.019477  0.000000     16.000000
 -0.022491  0.000000  0.000000     16.000000
 -0.011245 -0.019477  0.000000     16.000000
  0.033736  0.019477  0.000000     16.000000
  0.000000  0.038955  0.000000     16.000000
 -0.033736  0.019477  0.000000     16.000000
  0.056227  0.006492  0.000000     16.000000
  0.022491  0.051940  0.000000     16.000000
 -0.033736  0.045447  0.000000     16.000000
  0.022491 -0.051940  0.000000     16.000000
 -0.033736 -0.045447  0.000000     16.000000
 -0.056227  0.006492  0.000000     16.000000
  0.078717 -0.006492  0.000000     16.000000
  0.044981  0.064925  0.000000     16.000000
 -0.033736  0.071417  0.000000     16.000000
  0.044981 -0.064925  0.000000     16.000000
 -0.033736 -0.071417  0.000000     16.000000
 -0.078717 -0.006492  0.000000     16.000000
 -0.078717  0.084402  0.000000     16.000000
  0.067472 -0.129850  0.000000     16.000000
 -0.033736  0.097387  0.000000     16.000000
  0.067472 -0.077910  0.000000     16.000000
 -0.033736  0.110372  0.000000     16.000000
  0.078717 -0.123357  0.000000     16.000000
 -0.056227  0.071417  0.000000     16.000000
  0.089963 -0.116865  0.000000     16.000000
 -0.033736  0.123357  0.000000     16.000000
  0.089963 -0.090895  0.000000     16.000000
 -0.033736  0.084402  0.000000     16.000000
  0.056227  0.071417  0.000000     16.000000
 -0.033736  0.058432  0.000000     16.000000
 -0.067472  0.000000  0.000000     16.000000
 -0.033736 -0.058432  0.000000     16.000000
  0.056227  0.032462  0.000000     16.000000
  0.000000  0.064925  0.000000     16.000000
 -0.056227  0.032462  0.000000     16.000000
  0.078717  0.019477  0.000000     16.000000
  0.022491  0.077910  0.000000     16.000000
 -0.056227  0.058432  0.000000     16.000000
  0.022491 -0.077910  0.000000     16.000000
 -0.056227 -0.058432  0.000000     16.000000
 -0.078717  0.019477  0.000000     16.000000
 -0.078717  0.110372  0.000000     16.000000
  0.044981 -0.116865  0.000000     16.000000
 -0.056227  0.084402  0.000000     16.000000
  0.044981 -0.090895  0.000000     16.000000
 -0.056227  0.123357  0.000000     16.000000
  0.078717 -0.097387  0.000000     16.000000
 -0.056227  0.097387  0.000000     16.000000
  0.067472 -0.103880  0.000000     16.000000
 -0.056227  0.110372  0.000000     16.000000
  0.078717  0.045447  0.000000     16.000000
  0.000000  0.090895  0.000000     16.000000
 -0.078717  0.045447  0.000000     16.000000
 -0.078717  0.136342  0.000000     16.000000
  0.022491 -0.103880  0.000000     16.000000
 -0.078717  0.071417  0.000000     16.000000
 


--------------------------------------------------------------------------------------------------------




 Dimension of arrays:
   k-points           NKPTS =     96   k-points in BZ     NKDIM =     96   number of bands    NBANDS=    100
   number of dos      NEDOS =    301   number of ions     NIONS =     21
   non local maximal  LDIM  =      6   non local SUM 2l+1 LMDIM =     18
   total plane-waves  NPLWV = 112896
   max r-space proj   IRMAX =   2252   max aug-charges    IRDMAX=  10104
   dimension x,y,z NGX =    28 NGY =   28 NGZ =  144
   dimension x,y,z NGXF=    56 NGYF=   56 NGZF=  288
   support grid    NGXF=    56 NGYF=   56 NGZF=  288
   ions per type =               1   1   4   1  14
   NGX,Y,Z   is equivalent  to a cutoff of   8.38,  8.38,  7.77 a.u.
   NGXF,Y,Z  is equivalent  to a cutoff of  16.75, 16.75, 15.54 a.u.

 SYSTEM =  0.7.Ir1.Au8                             
 POSCAR =  Au  C  H Ir Pt                          

 Startparameter for this run:
   NWRITE =      2    write-flag & timer
   PREC   = normal    normal or accurate (medium, high low for compatibility)
   ISTART =      0    job   : 0-new  1-cont  2-samecut
   ICHARG =      2    charge: 1-file 2-atom 10-const
   ISPIN  =      1    spin polarized calculation?
   LNONCOLLINEAR =      F non collinear calculations
   LSORBIT =      F    spin-orbit coupling
   INIWAV =      1    electr: 0-lowe 1-rand  2-diag
   LASPH  =      F    aspherical Exc in radial PAW
   METAGGA=      F    non-selfconsistent MetaGGA calc.

 Electronic Relaxation 1
   ENCUT  =  350.0 eV  25.72 Ry    5.07 a.u.   8.48  8.48 46.99*2*pi/ulx,y,z
   ENINI  =  350.0     initial cutoff
   ENAUG  =  644.9 eV  augmentation charge cutoff
   NELM   =   1000;   NELMIN=  5; NELMDL= -5     # of ELM steps 
   EDIFF  = 0.1E-04   stopping-criterion for ELM
   LREAL  =      T    real-space projection
   NLSPLINE    = F    spline interpolate recip. space projectors
   LCOMPAT=      F    compatible to vasp.4.4
   GGA_COMPAT  = T    GGA compatible to vasp.4.4-vasp.4.6
   LMAXPAW     = -100 max onsite density
   LMAXMIX     =    2 max onsite mixed and CHGCAR
   VOSKOWN=      0    Vosko Wilk Nusair interpolation
   ROPT   =   -0.00050  -0.00050  -0.00050  -0.00050
   ROPT   =   -0.00050
 Ionic relaxation
   EDIFFG = 0.1E-03   stopping-criterion for IOM
   NSW    =      0    number of steps for IOM
   NBLOCK =      1;   KBLOCK =      1    inner block; outer block 
   IBRION =     -1    ionic relax: 0-MD 1-quasi-New 2-CG
   NFREE  =      0    steps in history (QN), initial steepest desc. (CG)
   ISIF   =      2    stress and relaxation
   IWAVPR =     10    prediction:  0-non 1-charg 2-wave 3-comb
   ISYM   =      2    0-nonsym 1-usesym 2-fastsym
   LCORR  =      T    Harris-Foulkes like correction to forces

   POTIM  = 0.5000    time-step for ionic-motion
   TEIN   =    0.0    initial temperature
   TEBEG  =    0.0;   TEEND  =   0.0 temperature during run
   SMASS  =  -3.00    Nose mass-parameter (am)
   estimated Nose-frequenzy (Omega)   =  0.10E-29 period in steps =****** mass=  -0.706E-27a.u.
   SCALEE = 1.0000    scale energy and forces
   NPACO  =    256;   APACO  = 16.0  distance and # of slots for P.C.
   PSTRESS=    0.0 pullay stress

  Mass of Ions in am
   POMASS = 196.97 12.01  1.00192.22195.08
  Ionic Valenz
   ZVAL   =  11.00  4.00  1.00  9.00 10.00
  Atomic Wigner-Seitz radii
   RWIGS  =  -1.00 -1.00 -1.00 -1.00 -1.00
  virtual crystal weights 
   VCA    =   1.00  1.00  1.00  1.00  1.00
   NELECT =     168.0000    total number of electrons
   NUPDOWN=      -1.0000    fix difference up-down

 DOS related values:
   EMIN   =  10.00;   EMAX   =-10.00  energy-range for DOS
   EFERMI =   0.00
   ISMEAR =     1;   SIGMA  =   0.20  broadening in eV -4-tet -1-fermi 0-gaus

 Electronic relaxation 2 (details)
   IALGO  =     38    algorithm
   LDIAG  =      T    sub-space diagonalisation (order eigenvalues)
   LSUBROT=      F    optimize rotation matrix (better conditioning)
   TURBO    =      0    0=normal 1=particle mesh
   IRESTART =      0    0=no restart 2=restart with 2 vectors
   NREBOOT  =      0    no. of reboots
   NMIN     =      0    reboot dimension
   EREF     =   0.00    reference energy to select bands
   IMIX   =      4    mixing-type and parameters
     AMIX     =   0.40;   BMIX     =  1.00
     AMIX_MAG =   1.60;   BMIX_MAG =  1.00
     AMIN     =   0.10
     WC   =   100.;   INIMIX=   1;  MIXPRE=   1;  MAXMIX= -45

 Intra band minimization:
   WEIMIN = 0.0000     energy-eigenvalue tresh-hold
   EBREAK =  0.25E-07  absolut break condition
   DEPER  =   0.30     relativ break condition  

   TIME   =   0.40     timestep for ELM

  volume/ion in A,a.u.               =      39.24       264.83
  Fermi-wavevector in a.u.,A,eV,Ry     =   0.963488  1.820729 12.630418  0.928310
  Thomas-Fermi vector in A             =   2.093038
 
 Write flags
   LWAVE        =      F    write WAVECAR
   LDOWNSAMPLE  =      F    k-point downsampling of WAVECAR
   LCHARG       =      F    write CHGCAR
   LVTOT        =      F    write LOCPOT, total local potential
   LVHAR        =      F    write LOCPOT, Hartree potential only
   LELF         =      F    write electronic localiz. function (ELF)
   LORBIT       =      0    0 simple, 1 ext, 2 COOP (PROOUT), +10 PAW based schemes


 Dipole corrections
   LMONO  =      F    monopole corrections only (constant potential shift)
   LDIPOL =      F    correct potential (dipole corrections)
   IDIPOL =      3    1-x, 2-y, 3-z, 4-all directions 
   EPSILON=  1.0000000 bulk dielectric constant

 Exchange correlation treatment:
   GGA     =    --    GGA type
   LEXCH   =     8    internal setting for exchange type
   VOSKOWN=      0    Vosko Wilk Nusair interpolation
   LHFCALC =     F    Hartree Fock is set to
   LHFONE  =     F    Hartree Fock one center treatment
   AEXX    =    0.0000 exact exchange contribution

 Linear response parameters
   LEPSILON=     F    determine dielectric tensor
   LRPA    =     F    only Hartree local field effects (RPA)
   LNABLA  =     F    use nabla operator in PAW spheres
   LVEL    =     F    velocity operator in full k-point grid
   LINTERFAST=   F  fast interpolation
   KINTER  =     0    interpolate to denser k-point grid
   CSHIFT  =0.1000    complex shift for real part using Kramers Kronig
   OMEGAMAX=  -1.0    maximum frequency
   DEG_THRESHOLD= 0.2000000E-02 threshold for treating states as degnerate
   RTIME   =   -0.100 relaxation time in fs
  (WPLASMAI=    0.000 imaginary part of plasma frequency in eV, 0.658/RTIME)
   DFIELD  = 0.0000000 0.0000000 0.0000000 field for delta impulse in time
 
 Orbital magnetization related:
   ORBITALMAG=     F  switch on orbital magnetization
   LCHIMAG   =     F  perturbation theory with respect to B field
   DQ        =  0.001000  dq finite difference perturbation B field
   LLRAUG    =     F  two centre corrections for induced B field



--------------------------------------------------------------------------------------------------------


 Static calculation
 charge density and potential will be updated during run
 non-spin polarized calculation
 Variant of blocked Davidson
 Davidson routine will perform the subspace rotation
 perform sub-space diagonalisation
    after iterative eigenvector-optimisation
 modified Broyden-mixing scheme, WC =      100.0
 initial mixing is a Kerker type mixing with AMIX =  0.4000 and BMIX =      1.0000
 Hartree-type preconditioning will be used
 using additional bands           16
 real space projection scheme for non local part
 use partial core corrections
 calculate Harris-corrections to forces 
   (improved forces if not selfconsistent)
 use gradient corrections 
 use of overlap-Matrix (Vanderbilt PP)
 Methfessel and Paxton  Order N= 1 SIGMA  =   0.20


--------------------------------------------------------------------------------------------------------


  energy-cutoff  :      350.00
  volume of cell :      824.13
      direct lattice vectors                 reciprocal lattice vectors
     5.557859300  0.000000000  0.000000000     0.179925390 -0.103879972  0.000000000
     2.778929650  4.813247345  0.000000000     0.000000000  0.207759944  0.000000000
     0.000000000  0.000000000 30.806959674     0.000000000  0.000000000  0.032460198

  length of vectors
     5.557859300  5.557859300 30.806959674     0.207759944  0.207759944  0.032460198


 
 k-points in units of 2pi/SCALE and weight: 0.7.Ir1.Au8                             
   0.01124534  0.00649250  0.00000000       0.010
   0.00000000  0.01298500  0.00000000       0.010
  -0.01124534  0.00649250  0.00000000       0.010
   0.03373601 -0.00649250  0.00000000       0.010
   0.02249067  0.02596999  0.00000000       0.010
  -0.01124534  0.03246249  0.00000000       0.010
   0.02249067 -0.02596999  0.00000000       0.010
  -0.01124534 -0.03246249  0.00000000       0.010
  -0.03373601 -0.00649250  0.00000000       0.010
   0.05622668 -0.01947749  0.00000000       0.010
   0.04498135  0.03895499  0.00000000       0.010
  -0.01124534  0.05843248  0.00000000       0.010
   0.04498135 -0.03895499  0.00000000       0.010
  -0.01124534 -0.05843248  0.00000000       0.010
  -0.05622668 -0.01947749  0.00000000       0.010
   0.07871736 -0.03246249  0.00000000       0.010
   0.06747202  0.05193999  0.00000000       0.010
  -0.01124534  0.08440248  0.00000000       0.010
   0.06747202 -0.05193999  0.00000000       0.010
  -0.01124534 -0.08440248  0.00000000       0.010
  -0.07871736 -0.03246249  0.00000000       0.010
  -0.07871736  0.05843248  0.00000000       0.010
   0.08996269 -0.14283496  0.00000000       0.010
  -0.01124534  0.11037247  0.00000000       0.010
   0.08996269 -0.06492498  0.00000000       0.010
  -0.01124534  0.09738747  0.00000000       0.010
   0.07871736  0.05843248  0.00000000       0.010
  -0.05622668  0.04544749  0.00000000       0.010
  -0.06747202 -0.02596999  0.00000000       0.010
  -0.01124534 -0.07141748  0.00000000       0.010
  -0.06747202  0.02596999  0.00000000       0.010
  -0.01124534  0.07141748  0.00000000       0.010
   0.05622668  0.04544749  0.00000000       0.010
  -0.03373601  0.03246249  0.00000000       0.010
  -0.04498135 -0.01298500  0.00000000       0.010
  -0.01124534 -0.04544749  0.00000000       0.010
  -0.04498135  0.01298500  0.00000000       0.010
  -0.01124534  0.04544749  0.00000000       0.010
   0.03373601  0.03246249  0.00000000       0.010
  -0.01124534  0.01947749  0.00000000       0.010
  -0.02249067  0.00000000  0.00000000       0.010
  -0.01124534 -0.01947749  0.00000000       0.010
   0.03373601  0.01947749  0.00000000       0.010
   0.00000000  0.03895499  0.00000000       0.010
  -0.03373601  0.01947749  0.00000000       0.010
   0.05622668  0.00649250  0.00000000       0.010
   0.02249067  0.05193999  0.00000000       0.010
  -0.03373601  0.04544749  0.00000000       0.010
   0.02249067 -0.05193999  0.00000000       0.010
  -0.03373601 -0.04544749  0.00000000       0.010
  -0.05622668  0.00649250  0.00000000       0.010
   0.07871736 -0.00649250  0.00000000       0.010
   0.04498135  0.06492498  0.00000000       0.010
  -0.03373601  0.07141748  0.00000000       0.010
   0.04498135 -0.06492498  0.00000000       0.010
  -0.03373601 -0.07141748  0.00000000       0.010
  -0.07871736 -0.00649250  0.00000000       0.010
  -0.07871736  0.08440248  0.00000000       0.010
   0.06747202 -0.12984997  0.00000000       0.010
  -0.03373601  0.09738747  0.00000000       0.010
   0.06747202 -0.07790998  0.00000000       0.010
  -0.03373601  0.11037247  0.00000000       0.010
   0.07871736 -0.12335747  0.00000000       0.010
  -0.05622668  0.07141748  0.00000000       0.010
   0.08996269 -0.11686497  0.00000000       0.010
  -0.03373601  0.12335747  0.00000000       0.010
   0.08996269 -0.09089498  0.00000000       0.010
  -0.03373601  0.08440248  0.00000000       0.010
   0.05622668  0.07141748  0.00000000       0.010
  -0.03373601  0.05843248  0.00000000       0.010
  -0.06747202  0.00000000  0.00000000       0.010
  -0.03373601 -0.05843248  0.00000000       0.010
   0.05622668  0.03246249  0.00000000       0.010
   0.00000000  0.06492498  0.00000000       0.010
  -0.05622668  0.03246249  0.00000000       0.010
   0.07871736  0.01947749  0.00000000       0.010
   0.02249067  0.07790998  0.00000000       0.010
  -0.05622668  0.05843248  0.00000000       0.010
   0.02249067 -0.07790998  0.00000000       0.010
  -0.05622668 -0.05843248  0.00000000       0.010
  -0.07871736  0.01947749  0.00000000       0.010
  -0.07871736  0.11037247  0.00000000       0.010
   0.04498135 -0.11686497  0.00000000       0.010
  -0.05622668  0.08440248  0.00000000       0.010
   0.04498135 -0.09089498  0.00000000       0.010
  -0.05622668  0.12335747  0.00000000       0.010
   0.07871736 -0.09738747  0.00000000       0.010
  -0.05622668  0.09738747  0.00000000       0.010
   0.06747202 -0.10387997  0.00000000       0.010
  -0.05622668  0.11037247  0.00000000       0.010
   0.07871736  0.04544749  0.00000000       0.010
   0.00000000  0.09089498  0.00000000       0.010
  -0.07871736  0.04544749  0.00000000       0.010
  -0.07871736  0.13634246  0.00000000       0.010
   0.02249067 -0.10387997  0.00000000       0.010
  -0.07871736  0.07141748  0.00000000       0.010
 
 k-points in reciprocal lattice and weights: 0.7.Ir1.Au8                             
   0.06250000  0.06250000  0.00000000       0.010
   0.00000000  0.06250000  0.00000000       0.010
  -0.06250000  0.00000000  0.00000000       0.010
   0.18750000  0.06250000  0.00000000       0.010
   0.12500000  0.18750000  0.00000000       0.010
  -0.06250000  0.12500000  0.00000000       0.010
   0.12500000 -0.06250000  0.00000000       0.010
  -0.06250000 -0.18750000  0.00000000       0.010
  -0.18750000 -0.12500000  0.00000000       0.010
   0.31250000  0.06250000  0.00000000       0.010
   0.25000000  0.31250000  0.00000000       0.010
  -0.06250000  0.25000000  0.00000000       0.010
   0.25000000 -0.06250000  0.00000000       0.010
  -0.06250000 -0.31250000  0.00000000       0.010
  -0.31250000 -0.25000000  0.00000000       0.010
   0.43750000  0.06250000  0.00000000       0.010
   0.37500000  0.43750000  0.00000000       0.010
  -0.06250000  0.37500000  0.00000000       0.010
   0.37500000 -0.06250000  0.00000000       0.010
  -0.06250000 -0.43750000  0.00000000       0.010
  -0.43750000 -0.37500000  0.00000000       0.010
  -0.43750000  0.06250000  0.00000000       0.010
   0.50000000 -0.43750000  0.00000000       0.010
  -0.06250000  0.50000000  0.00000000       0.010
   0.50000000 -0.06250000  0.00000000       0.010
  -0.06250000  0.43750000  0.00000000       0.010
   0.43750000  0.50000000  0.00000000       0.010
  -0.31250000  0.06250000  0.00000000       0.010
  -0.37500000 -0.31250000  0.00000000       0.010
  -0.06250000 -0.37500000  0.00000000       0.010
  -0.37500000 -0.06250000  0.00000000       0.010
  -0.06250000  0.31250000  0.00000000       0.010
   0.31250000  0.37500000  0.00000000       0.010
  -0.18750000  0.06250000  0.00000000       0.010
  -0.25000000 -0.18750000  0.00000000       0.010
  -0.06250000 -0.25000000  0.00000000       0.010
  -0.25000000 -0.06250000  0.00000000       0.010
  -0.06250000  0.18750000  0.00000000       0.010
   0.18750000  0.25000000  0.00000000       0.010
  -0.06250000  0.06250000  0.00000000       0.010
  -0.12500000 -0.06250000  0.00000000       0.010
  -0.06250000 -0.12500000  0.00000000       0.010
   0.18750000  0.18750000  0.00000000       0.010
   0.00000000  0.18750000  0.00000000       0.010
  -0.18750000  0.00000000  0.00000000       0.010
   0.31250000  0.18750000  0.00000000       0.010
   0.12500000  0.31250000  0.00000000       0.010
  -0.18750000  0.12500000  0.00000000       0.010
   0.12500000 -0.18750000  0.00000000       0.010
  -0.18750000 -0.31250000  0.00000000       0.010
  -0.31250000 -0.12500000  0.00000000       0.010
   0.43750000  0.18750000  0.00000000       0.010
   0.25000000  0.43750000  0.00000000       0.010
  -0.18750000  0.25000000  0.00000000       0.010
   0.25000000 -0.18750000  0.00000000       0.010
  -0.18750000 -0.43750000  0.00000000       0.010
  -0.43750000 -0.25000000  0.00000000       0.010
  -0.43750000  0.18750000  0.00000000       0.010
   0.37500000 -0.43750000  0.00000000       0.010
  -0.18750000  0.37500000  0.00000000       0.010
   0.37500000 -0.18750000  0.00000000       0.010
  -0.18750000  0.43750000  0.00000000       0.010
   0.43750000 -0.37500000  0.00000000       0.010
  -0.31250000  0.18750000  0.00000000       0.010
   0.50000000 -0.31250000  0.00000000       0.010
  -0.18750000  0.50000000  0.00000000       0.010
   0.50000000 -0.18750000  0.00000000       0.010
  -0.18750000  0.31250000  0.00000000       0.010
   0.31250000  0.50000000  0.00000000       0.010
  -0.18750000  0.18750000  0.00000000       0.010
  -0.37500000 -0.18750000  0.00000000       0.010
  -0.18750000 -0.37500000  0.00000000       0.010
   0.31250000  0.31250000  0.00000000       0.010
   0.00000000  0.31250000  0.00000000       0.010
  -0.31250000  0.00000000  0.00000000       0.010
   0.43750000  0.31250000  0.00000000       0.010
   0.12500000  0.43750000  0.00000000       0.010
  -0.31250000  0.12500000  0.00000000       0.010
   0.12500000 -0.31250000  0.00000000       0.010
  -0.31250000 -0.43750000  0.00000000       0.010
  -0.43750000 -0.12500000  0.00000000       0.010
  -0.43750000  0.31250000  0.00000000       0.010
   0.25000000 -0.43750000  0.00000000       0.010
  -0.31250000  0.25000000  0.00000000       0.010
   0.25000000 -0.31250000  0.00000000       0.010
  -0.31250000  0.43750000  0.00000000       0.010
   0.43750000 -0.25000000  0.00000000       0.010
  -0.31250000  0.31250000  0.00000000       0.010
   0.37500000 -0.31250000  0.00000000       0.010
  -0.31250000  0.37500000  0.00000000       0.010
   0.43750000  0.43750000  0.00000000       0.010
   0.00000000  0.43750000  0.00000000       0.010
  -0.43750000 -0.00000000  0.00000000       0.010
  -0.43750000  0.43750000  0.00000000       0.010
   0.12500000 -0.43750000  0.00000000       0.010
  -0.43750000  0.12500000  0.00000000       0.010
 
 position of ions in fractional coordinates (direct lattice) 
   0.84040108  0.33451347  0.54526541
   0.99654131  0.98200101  0.69867488
   0.04611278  0.26048179  0.65647134
   0.87691220  0.19343300  0.71209906
   0.89825238  0.85994800  0.70725733
   0.21301894  0.88220564  0.71000282
   0.50018089  0.00511184  0.39429036
   0.50514416  0.50150860  0.61860682
   0.00560370  0.50622903  0.62036782
   0.50977050  0.99806172  0.61878177
   0.00344512  0.99589709  0.63078680
   0.00167450  0.00408733  0.39456289
   0.33865719  0.33653694  0.54421247
   0.66955091  0.67213343  0.46962411
   0.16884804  0.67231159  0.47055225
   0.66939657  0.17281857  0.46967056
   0.16967093  0.17152319  0.47036493
   0.49943333  0.50496366  0.39399991
   0.00190642  0.50396420  0.39428986
   0.33503350  0.83908930  0.54553709
   0.84155436  0.83882501  0.54580136
 
 position of ions in cartesian coordinates  (Angst):
   5.60042040  1.61009609 16.79796964
   8.26754812  4.72661376 21.52404872
   0.98014889  1.25376327 20.22388612
   5.41129134  0.93104088 21.93760712
   7.38209534  4.13914242 21.78844802
   3.63551668  4.24627395 21.87302822
   2.79414044  0.02460456 12.14688713
   4.20117727  2.41388492 19.05739550
   1.43791946  2.43660553 19.11164627
   5.60677603  4.80391793 19.06278511
   2.78667545  4.79349903 19.43262359
   0.02066505  0.01967331 12.15528297
   2.81742146  1.61983552 16.76553154
   5.58908129  3.23514446 14.46769100
   2.80674027  3.23600199 14.49628404
   4.20066260  0.83181851 14.46912197
   1.41965800  0.82558352 14.49051342
   4.17903865  2.43051498 12.13793946
   1.41107668  2.42570433 12.14687185
   4.19383920  4.03874434 16.80633928
   7.00827642  4.03747226 16.81448054
 


--------------------------------------------------------------------------------------------------------


 k-point  1 :   0.0625 0.0625 0.0000  plane waves:   12325
 k-point  2 :   0.0000 0.0625 0.0000  plane waves:   12325
 k-point  3 :  -0.0625 0.0000 0.0000  plane waves:   12325
 k-point  4 :   0.1875 0.0625 0.0000  plane waves:   12294
 k-point  5 :   0.1250 0.1875 0.0000  plane waves:   12294
 k-point  6 :  -0.0625 0.1250 0.0000  plane waves:   12294
 k-point  7 :   0.1250-0.0625 0.0000  plane waves:   12294
 k-point  8 :  -0.0625-0.1875 0.0000  plane waves:   12294
 k-point  9 :  -0.1875-0.1250 0.0000  plane waves:   12294
 k-point 10 :   0.3125 0.0625 0.0000  plane waves:   12263
 k-point 11 :   0.2500 0.3125 0.0000  plane waves:   12263
 k-point 12 :  -0.0625 0.2500 0.0000  plane waves:   12263
 k-point 13 :   0.2500-0.0625 0.0000  plane waves:   12263
 k-point 14 :  -0.0625-0.3125 0.0000  plane waves:   12263
 k-point 15 :  -0.3125-0.2500 0.0000  plane waves:   12263
 k-point 16 :   0.4375 0.0625 0.0000  plane waves:   12221
 k-point 17 :   0.3750 0.4375 0.0000  plane waves:   12221
 k-point 18 :  -0.0625 0.3750 0.0000  plane waves:   12221
 k-point 19 :   0.3750-0.0625 0.0000  plane waves:   12221
 k-point 20 :  -0.0625-0.4375 0.0000  plane waves:   12221
 k-point 21 :  -0.4375-0.3750 0.0000  plane waves:   12221
 k-point 22 :  -0.4375 0.0625 0.0000  plane waves:   12211
 k-point 23 :   0.5000-0.4375 0.0000  plane waves:   12211
 k-point 24 :  -0.0625 0.5000 0.0000  plane waves:   12211
 k-point 25 :   0.5000-0.0625 0.0000  plane waves:   12211
 k-point 26 :  -0.0625 0.4375 0.0000  plane waves:   12211
 k-point 27 :   0.4375 0.5000 0.0000  plane waves:   12211
 k-point 28 :  -0.3125 0.0625 0.0000  plane waves:   12242
 k-point 29 :  -0.3750-0.3125 0.0000  plane waves:   12242
 k-point 30 :  -0.0625-0.3750 0.0000  plane waves:   12242
 k-point 31 :  -0.3750-0.0625 0.0000  plane waves:   12242
 k-point 32 :  -0.0625 0.3125 0.0000  plane waves:   12242
 k-point 33 :   0.3125 0.3750 0.0000  plane waves:   12242
 k-point 34 :  -0.1875 0.0625 0.0000  plane waves:   12280
 k-point 35 :  -0.2500-0.1875 0.0000  plane waves:   12280
 k-point 36 :  -0.0625-0.2500 0.0000  plane waves:   12280
 k-point 37 :  -0.2500-0.0625 0.0000  plane waves:   12280
 k-point 38 :  -0.0625 0.1875 0.0000  plane waves:   12280
 k-point 39 :   0.1875 0.2500 0.0000  plane waves:   12280
 k-point 40 :  -0.0625 0.0625 0.0000  plane waves:   12329
 k-point 41 :  -0.1250-0.0625 0.0000  plane waves:   12329
 k-point 42 :  -0.0625-0.1250 0.0000  plane waves:   12329
 k-point 43 :   0.1875 0.1875 0.0000  plane waves:   12277
 k-point 44 :   0.0000 0.1875 0.0000  plane waves:   12277
 k-point 45 :  -0.1875 0.0000 0.0000  plane waves:   12277
 k-point 46 :   0.3125 0.1875 0.0000  plane waves:   12288
 k-point 47 :   0.1250 0.3125 0.0000  plane waves:   12288
 k-point 48 :  -0.1875 0.1250 0.0000  plane waves:   12288
 k-point 49 :   0.1250-0.1875 0.0000  plane waves:   12288
 k-point 50 :  -0.1875-0.3125 0.0000  plane waves:   12288
 k-point 51 :  -0.3125-0.1250 0.0000  plane waves:   12288
 k-point 52 :   0.4375 0.1875 0.0000  plane waves:   12234
 k-point 53 :   0.2500 0.4375 0.0000  plane waves:   12234
 k-point 54 :  -0.1875 0.2500 0.0000  plane waves:   12234
 k-point 55 :   0.2500-0.1875 0.0000  plane waves:   12234
 k-point 56 :  -0.1875-0.4375 0.0000  plane waves:   12234
 k-point 57 :  -0.4375-0.2500 0.0000  plane waves:   12234
 k-point 58 :  -0.4375 0.1875 0.0000  plane waves:   12216
 k-point 59 :   0.3750-0.4375 0.0000  plane waves:   12216
 k-point 60 :  -0.1875 0.3750 0.0000  plane waves:   12216
 k-point 61 :   0.3750-0.1875 0.0000  plane waves:   12216
 k-point 62 :  -0.1875 0.4375 0.0000  plane waves:   12216
 k-point 63 :   0.4375-0.3750 0.0000  plane waves:   12216
 k-point 64 :  -0.3125 0.1875 0.0000  plane waves:   12215
 k-point 65 :   0.5000-0.3125 0.0000  plane waves:   12215
 k-point 66 :  -0.1875 0.5000 0.0000  plane waves:   12215
 k-point 67 :   0.5000-0.1875 0.0000  plane waves:   12215
 k-point 68 :  -0.1875 0.3125 0.0000  plane waves:   12215
 k-point 69 :   0.3125 0.5000 0.0000  plane waves:   12215
 k-point 70 :  -0.1875 0.1875 0.0000  plane waves:   12289
 k-point 71 :  -0.3750-0.1875 0.0000  plane waves:   12289
 k-point 72 :  -0.1875-0.3750 0.0000  plane waves:   12289
 k-point 73 :   0.3125 0.3125 0.0000  plane waves:   12275
 k-point 74 :   0.0000 0.3125 0.0000  plane waves:   12275
 k-point 75 :  -0.3125 0.0000 0.0000  plane waves:   12275
 k-point 76 :   0.4375 0.3125 0.0000  plane waves:   12239
 k-point 77 :   0.1250 0.4375 0.0000  plane waves:   12239
 k-point 78 :  -0.3125 0.1250 0.0000  plane waves:   12239
 k-point 79 :   0.1250-0.3125 0.0000  plane waves:   12239
 k-point 80 :  -0.3125-0.4375 0.0000  plane waves:   12239
 k-point 81 :  -0.4375-0.1250 0.0000  plane waves:   12239
 k-point 82 :  -0.4375 0.3125 0.0000  plane waves:   12235
 k-point 83 :   0.2500-0.4375 0.0000  plane waves:   12235
 k-point 84 :  -0.3125 0.2500 0.0000  plane waves:   12235
 k-point 85 :   0.2500-0.3125 0.0000  plane waves:   12235
 k-point 86 :  -0.3125 0.4375 0.0000  plane waves:   12235
 k-point 87 :   0.4375-0.2500 0.0000  plane waves:   12235
 k-point 88 :  -0.3125 0.3125 0.0000  plane waves:   12232
 k-point 89 :   0.3750-0.3125 0.0000  plane waves:   12232
 k-point 90 :  -0.3125 0.3750 0.0000  plane waves:   12232
 k-point 91 :   0.4375 0.4375 0.0000  plane waves:   12200
 k-point 92 :   0.0000 0.4375 0.0000  plane waves:   12200
 k-point 93 :  -0.4375-0.0000 0.0000  plane waves:   12200
 k-point 94 :  -0.4375 0.4375 0.0000  plane waves:   12214
 k-point 95 :   0.1250-0.4375 0.0000  plane waves:   12214
 k-point 96 :  -0.4375 0.1250 0.0000  plane waves:   12214

 maximum and minimum number of plane-waves per node :      3101     2992

 maximum number of plane-waves:     12329
 maximum index in each direction: 
   IXMAX=    8   IYMAX=    8   IZMAX=   46
   IXMIN=   -8   IYMIN=   -8   IZMIN=  -46


 real space projection operators:
  total allocation   :       5100.03 KBytes
  max/ min on nodes  :       1278.54       1271.13


 parallel 3D FFT for wavefunctions:
    minimum data exchange during FFTs selected (reduces bandwidth)
 parallel 3D FFT for charge:
    minimum data exchange during FFTs selected (reduces bandwidth)


 total amount of memory used by VASP MPI-rank0   164315. kBytes
=======================================================================

   base      :      30000. kBytes
   nonlr-proj:       2362. kBytes
   fftplans  :       2967. kBytes
   grid      :       6321. kBytes
   one-center:         93. kBytes
   wavefun   :     122572. kBytes
 
     INWAV:  cpu time    0.0000: real time    0.0000
 Broyden mixing: mesh for mixing (old mesh)
   NGX = 17   NGY = 17   NGZ = 93
  (NGX  = 56   NGY  = 56   NGZ  =288)
  gives a total of  26877 points

 initial charge density was supplied:
 charge density of overlapping atoms calculated
 number of electron     168.0000000 magnetization 
 keeping initial charge density in first step


--------------------------------------------------------------------------------------------------------


 Maximum index for non-local projection operator          542
 Maximum index for augmentation-charges          716 (set IRDMAX)


--------------------------------------------------------------------------------------------------------


 First call to EWALD:  gamma=   0.189
 Maximum number of real-space cells 5x 5x 1
 Maximum number of reciprocal cells 2x 2x 8

    FEWALD:  cpu time    0.0193: real time    0.0193


--------------------------------------- Iteration      1(   1)  ---------------------------------------


    POTLOK:  cpu time    0.0721: real time    0.1932
    SETDIJ:  cpu time    0.0128: real time    0.0128
     EDDAV:  cpu time   35.5195: real time   38.7804
       DOS:  cpu time    0.0078: real time    0.0078
    --------------------------------------------
      LOOP:  cpu time   35.6122: real time   38.9942

 eigenvalue-minimisations  : 19288
 total energy-change (2. order) : 0.1029811E+04  (-0.5832137E+04)
 number of electron     168.0000000 magnetization 
 augmentation part      168.0000000 magnetization 

 Free energy of the ion-electron system (eV)
  ---------------------------------------------------
  alpha Z        PSCENC =       324.87461712
  Ewald energy   TEWEN  =    101146.53256410
  -Hartree energ DENC   =   -113433.76045885
  -exchange      EXHF   =         0.00000000
  -V(xc)+E(xc)   XCENC  =        69.30971524
  PAW double counting   =     11288.27476651   -10829.50941267
  entropy T*S    EENTRO =        -0.00000134
  eigenvalues    EBANDS =       573.45206325
  atomic energy  EATOM  =     11890.63736546
  Solvation  Ediel_sol  =         0.00000000
  ---------------------------------------------------
  free energy    TOTEN  =      1029.81121883 eV

  energy without entropy =     1029.81122016  energy(sigma->0) =     1029.81121927


--------------------------------------------------------------------------------------------------------




--------------------------------------- Iteration      1(   2)  ---------------------------------------


     EDDAV:  cpu time   42.7249: real time   46.2442
       DOS:  cpu time    0.0187: real time    0.0187
    --------------------------------------------
      LOOP:  cpu time   42.7436: real time   46.2628

 eigenvalue-minimisations  : 23912
 total energy-change (2. order) :-0.1058308E+04  (-0.9828261E+03)
 number of electron     168.0000000 magnetization 
 augmentation part      168.0000000 magnetization 

 Free energy of the ion-electron system (eV)
  ---------------------------------------------------
  alpha Z        PSCENC =       324.87461712
  Ewald energy   TEWEN  =    101146.53256410
  -Hartree energ DENC   =   -113433.76045885
  -exchange      EXHF   =         0.00000000
  -V(xc)+E(xc)   XCENC  =        69.30971524
  PAW double counting   =     11288.27476651   -10829.50941267
  entropy T*S    EENTRO =         0.00363483
  eigenvalues    EBANDS =      -484.85984061
  atomic energy  EATOM  =     11890.63736546
  Solvation  Ediel_sol  =         0.00000000
  ---------------------------------------------------
  free energy    TOTEN  =       -28.49704886 eV

  energy without entropy =      -28.50068369  energy(sigma->0) =      -28.49826047


--------------------------------------------------------------------------------------------------------




--------------------------------------- Iteration      1(   3)  ---------------------------------------


     EDDAV:  cpu time   40.1674: real time   42.7533
       DOS:  cpu time    0.0089: real time    0.0089
    --------------------------------------------
      LOOP:  cpu time   40.1763: real time   42.7622

 eigenvalue-minimisations  : 23040
 total energy-change (2. order) :-0.9212821E+02  (-0.8517836E+02)
 number of electron     168.0000000 magnetization 
 augmentation part      168.0000000 magnetization 

 Free energy of the ion-electron system (eV)
  ---------------------------------------------------
  alpha Z        PSCENC =       324.87461712
  Ewald energy   TEWEN  =    101146.53256410
  -Hartree energ DENC   =   -113433.76045885
  -exchange      EXHF   =         0.00000000
  -V(xc)+E(xc)   XCENC  =        69.30971524
  PAW double counting   =     11288.27476651   -10829.50941267
  entropy T*S    EENTRO =        -0.02188468
  eigenvalues    EBANDS =      -576.96252933
  atomic energy  EATOM  =     11890.63736546
  Solvation  Ediel_sol  =         0.00000000
  ---------------------------------------------------
  free energy    TOTEN  =      -120.62525709 eV

  energy without entropy =     -120.60337241  energy(sigma->0) =     -120.61796219


--------------------------------------------------------------------------------------------------------




--------------------------------------- Iteration      1(   4)  ---------------------------------------


     EDDAV:  cpu time   42.0974: real time   46.0456
       DOS:  cpu time    0.0089: real time    0.0089
    --------------------------------------------
      LOOP:  cpu time   42.1063: real time   46.0545

 eigenvalue-minimisations  : 25624
 total energy-change (2. order) :-0.4492357E+01  (-0.4276621E+01)
 number of electron     168.0000000 magnetization 
 augmentation part      168.0000000 magnetization 

 Free energy of the ion-electron system (eV)
  ---------------------------------------------------
  alpha Z        PSCENC =       324.87461712
  Ewald energy   TEWEN  =    101146.53256410
  -Hartree energ DENC   =   -113433.76045885
  -exchange      EXHF   =         0.00000000
  -V(xc)+E(xc)   XCENC  =        69.30971524
  PAW double counting   =     11288.27476651   -10829.50941267
  entropy T*S    EENTRO =        -0.02735609
  eigenvalues    EBANDS =      -581.44941452
  atomic energy  EATOM  =     11890.63736546
  Solvation  Ediel_sol  =         0.00000000
  ---------------------------------------------------
  free energy    TOTEN  =      -125.11761370 eV

  energy without entropy =     -125.09025761  energy(sigma->0) =     -125.10849500


--------------------------------------------------------------------------------------------------------




--------------------------------------- Iteration      1(   5)  ---------------------------------------


     EDDAV:  cpu time   43.4913: real time   47.0987
       DOS:  cpu time    0.0090: real time    0.0090
    CHARGE:  cpu time    0.9093: real time    0.9743
    MIXING:  cpu time    0.0284: real time    0.0284
    --------------------------------------------
      LOOP:  cpu time   44.4379: real time   48.1103

 eigenvalue-minimisations  : 25528
 total energy-change (2. order) :-0.1367043E+00  (-0.1355714E+00)
 number of electron     167.9999975 magnetization 
 augmentation part       46.9308666 magnetization 

 Broyden mixing:
  rms(total) = 0.43569E+01    rms(broyden)= 0.43567E+01
  rms(prec ) = 0.44043E+01
  weight for this iteration     100.00

 Free energy of the ion-electron system (eV)
  ---------------------------------------------------
  alpha Z        PSCENC =       324.87461712
  Ewald energy   TEWEN  =    101146.53256410
  -Hartree energ DENC   =   -113433.76045885
  -exchange      EXHF   =         0.00000000
  -V(xc)+E(xc)   XCENC  =        69.30971524
  PAW double counting   =     11288.27476651   -10829.50941267
  entropy T*S    EENTRO =        -0.02756595
  eigenvalues    EBANDS =      -581.58590891
  atomic energy  EATOM  =     11890.63736546
  Solvation  Ediel_sol  =         0.00000000
  ---------------------------------------------------
  free energy    TOTEN  =      -125.25431795 eV

  energy without entropy =     -125.22675199  energy(sigma->0) =     -125.24512930


--------------------------------------------------------------------------------------------------------




--------------------------------------- Iteration      1(   6)  ---------------------------------------


    POTLOK:  cpu time    0.0595: real time    0.1992
    SETDIJ:  cpu time    0.0187: real time    0.0187
     EDDAV:  cpu time   40.6819: real time   45.1185
       DOS:  cpu time    0.0206: real time    0.0206
    CHARGE:  cpu time    1.0428: real time    1.0532
    MIXING:  cpu time    0.0051: real time    0.0051
    --------------------------------------------
      LOOP:  cpu time   41.8286: real time   46.4151

 eigenvalue-minimisations  : 23200
 total energy-change (2. order) : 0.6944975E+01  (-0.3511699E+01)
 number of electron     167.9999971 magnetization 
 augmentation part       49.8968712 magnetization 

 Broyden mixing:
  rms(total) = 0.33148E+01    rms(broyden)= 0.33147E+01
  rms(prec ) = 0.34498E+01
  weight for this iteration     100.00

 eigenvalues of (default mixing * dielectric matrix)
  average eigenvalue GAMMA=   1.0985
  1.0985

 Free energy of the ion-electron system (eV)
  ---------------------------------------------------
  alpha Z        PSCENC =       324.87461712
  Ewald energy   TEWEN  =    101146.53256410
  -Hartree energ DENC   =   -113206.58353630
  -exchange      EXHF   =         0.00000000
  -V(xc)+E(xc)   XCENC  =        66.10085673
  PAW double counting   =     12552.68978323   -12117.85192607
  entropy T*S    EENTRO =        -0.03939405
  eigenvalues    EBANDS =      -774.66967349
  atomic energy  EATOM  =     11890.63736546
  Solvation  Ediel_sol  =         0.00000000
  ---------------------------------------------------
  free energy    TOTEN  =      -118.30934327 eV

  energy without entropy =     -118.26994922  energy(sigma->0) =     -118.29621192


--------------------------------------------------------------------------------------------------------




--------------------------------------- Iteration      1(   7)  ---------------------------------------


    POTLOK:  cpu time    0.0626: real time    0.0628
    SETDIJ:  cpu time    0.0034: real time    0.0034
     EDDAV:  cpu time   42.7940: real time   46.4048
       DOS:  cpu time    0.0094: real time    0.0094
    CHARGE:  cpu time    0.9646: real time    0.9983
    MIXING:  cpu time    0.0353: real time    0.0353
    --------------------------------------------
      LOOP:  cpu time   43.8693: real time   47.5139

 eigenvalue-minimisations  : 24496
 total energy-change (2. order) :-0.2594128E+02  (-0.1236332E+02)
 number of electron     167.9999977 magnetization 
 augmentation part       48.6882077 magnetization 

 Broyden mixing:
  rms(total) = 0.47229E+01    rms(broyden)= 0.47228E+01
  rms(prec ) = 0.54802E+01
  weight for this iteration     100.00

 eigenvalues of (default mixing * dielectric matrix)
  average eigenvalue GAMMA=   1.0567
  1.8684  0.2449

 Free energy of the ion-electron system (eV)
  ---------------------------------------------------
  alpha Z        PSCENC =       324.87461712
  Ewald energy   TEWEN  =    101146.53256410
  -Hartree energ DENC   =   -113369.76972599
  -exchange      EXHF   =         0.00000000
  -V(xc)+E(xc)   XCENC  =        65.62664845
  PAW double counting   =     13470.07107831   -13043.71834036
  entropy T*S    EENTRO =         0.00847476
  eigenvalues    EBANDS =      -628.51330030
  atomic energy  EATOM  =     11890.63736546
  Solvation  Ediel_sol  =         0.00000000
  ---------------------------------------------------
  free energy    TOTEN  =      -144.25061845 eV

  energy without entropy =     -144.25909321  energy(sigma->0) =     -144.25344337


--------------------------------------------------------------------------------------------------------




--------------------------------------- Iteration      1(   8)  ---------------------------------------


    POTLOK:  cpu time    0.1461: real time    0.3098
    SETDIJ:  cpu time    0.0289: real time    0.0290
     EDDAV:  cpu time   41.6640: real time   49.0922
       DOS:  cpu time    0.0101: real time    0.0101
    CHARGE:  cpu time    0.8048: real time    0.9872
    MIXING:  cpu time    0.0145: real time    0.0145
    --------------------------------------------
      LOOP:  cpu time   42.6683: real time   50.4428

 eigenvalue-minimisations  : 26620
 total energy-change (2. order) : 0.1121000E+02  (-0.6110901E+01)
 number of electron     167.9999959 magnetization 
 augmentation part       50.3251377 magnetization 

 Broyden mixing:
  rms(total) = 0.35961E+01    rms(broyden)= 0.35959E+01
  rms(prec ) = 0.43029E+01
  weight for this iteration     100.00

 eigenvalues of (default mixing * dielectric matrix)
  average eigenvalue GAMMA=   0.8775
  2.0931  0.2697  0.2697

 Free energy of the ion-electron system (eV)
  ---------------------------------------------------
  alpha Z        PSCENC =       324.87461712
  Ewald energy   TEWEN  =    101146.53256410
  -Hartree energ DENC   =   -113300.20859404
  -exchange      EXHF   =         0.00000000
  -V(xc)+E(xc)   XCENC  =        65.09427932
  PAW double counting   =     14420.66986458   -14004.50907445
  entropy T*S    EENTRO =         0.00405727
  eigenvalues    EBANDS =      -676.13569659
  atomic energy  EATOM  =     11890.63736546
  Solvation  Ediel_sol  =         0.00000000
[...]
     21      -5.1801      2.00000
     22      -5.1133      2.00000
     23      -4.9997      2.00000
     24      -4.9067      2.00000
     25      -4.7974      2.00000
     26      -4.7359      2.00000
     27      -4.6596      2.00000
     28      -4.5970      2.00000
     29      -4.5766      2.00000
     30      -4.5153      2.00000
     31      -4.4677      2.00000
     32      -4.4265      2.00000
     33      -4.2732      2.00000
     34      -4.1871      2.00000
     35      -4.1307      2.00000
     36      -4.0439      2.00000
     37      -3.9726      2.00000
     38      -3.9360      2.00000
     39      -3.9125      2.00000
     40      -3.8430      2.00000
     41      -3.7045      2.00000
     42      -3.6607      2.00000
     43      -3.5830      2.00000
     44      -3.5244      2.00000
     45      -3.4803      2.00000
     46      -3.3951      2.00000
     47      -3.3045      2.00000
     48      -3.2463      2.00000
     49      -3.1904      2.00000
     50      -3.1348      2.00000
     51      -3.0933      2.00000
     52      -3.0516      2.00000
     53      -2.9308      2.00000
     54      -2.8497      2.00000
     55      -2.8268      2.00000
     56      -2.7250      2.00000
     57      -2.6553      2.00000
     58      -2.5769      2.00000
     59      -2.4293      2.00000
     60      -2.3575      2.00000
     61      -2.3185      2.00000
     62      -2.2178      2.00000
     63      -2.1178      2.00000
     64      -2.0860      2.00000
     65      -2.0399      2.00000
     66      -1.9376      2.00000
     67      -1.8228      2.00000
     68      -1.7670      2.00000
     69      -1.6936      2.00000
     70      -1.6119      2.00000
     71      -1.5529      2.00000
     72      -1.5142      2.00000
     73      -1.4197      2.00000
     74      -1.3493      2.00000
     75      -1.2957      2.00000
     76      -1.2502      2.00000
     77      -1.0654      2.00000
     78      -0.9721      2.00001
     79      -0.9228      2.00003
     80      -0.8351      2.00038
     81      -0.7043      2.00748
     82      -0.6173      2.03033
     83      -0.4679      2.05661
     84      -0.4002      1.91676
     85      -0.3224      1.49299
     86      -0.1885      0.42813
     87      -0.1644      0.27827
     88      -0.0999      0.01700
     89       0.0576     -0.04674
     90       0.6543     -0.00000
     91       0.8358     -0.00000
     92       1.1348     -0.00000
     93       1.6966     -0.00000
     94       2.0066     -0.00000
     95       2.7284     -0.00000
     96       2.8165     -0.00000
     97       3.4027     -0.00000
     98       3.8649     -0.00000
     99       4.2235     -0.00000
    100       4.5059     -0.00000

 k-point    96 :      -0.4375    0.1250    0.0000
  band No.  band energies     occupation 
      1     -12.6573      2.00000
      2      -8.1103      2.00000
      3      -7.7082      2.00000
      4      -7.5575      2.00000
      5      -6.7661      2.00000
      6      -6.5422      2.00000
      7      -6.3094      2.00000
      8      -6.0619      2.00000
      9      -5.9986      2.00000
     10      -5.9502      2.00000
     11      -5.8678      2.00000
     12      -5.8201      2.00000
     13      -5.7542      2.00000
     14      -5.6615      2.00000
     15      -5.6526      2.00000
     16      -5.6161      2.00000
     17      -5.4488      2.00000
     18      -5.3258      2.00000
     19      -5.2552      2.00000
     20      -5.2181      2.00000
     21      -5.1778      2.00000
     22      -5.0227      2.00000
     23      -4.9439      2.00000
     24      -4.8777      2.00000
     25      -4.8036      2.00000
     26      -4.7134      2.00000
     27      -4.6732      2.00000
     28      -4.5949      2.00000
     29      -4.5580      2.00000
     30      -4.5228      2.00000
     31      -4.4996      2.00000
     32      -4.3595      2.00000
     33      -4.2891      2.00000
     34      -4.1920      2.00000
     35      -4.1237      2.00000
     36      -4.0294      2.00000
     37      -3.9402      2.00000
     38      -3.9097      2.00000
     39      -3.8586      2.00000
     40      -3.7954      2.00000
     41      -3.7342      2.00000
     42      -3.6534      2.00000
     43      -3.5538      2.00000
     44      -3.5415      2.00000
     45      -3.5098      2.00000
     46      -3.4266      2.00000
     47      -3.3051      2.00000
     48      -3.2463      2.00000
     49      -3.1868      2.00000
     50      -3.1278      2.00000
     51      -3.0973      2.00000
     52      -3.0599      2.00000
     53      -2.9361      2.00000
     54      -2.8985      2.00000
     55      -2.8351      2.00000
     56      -2.7001      2.00000
     57      -2.5147      2.00000
     58      -2.4732      2.00000
     59      -2.4123      2.00000
     60      -2.3290      2.00000
     61      -2.2883      2.00000
     62      -2.2064      2.00000
     63      -2.1401      2.00000
     64      -2.0860      2.00000
     65      -1.9949      2.00000
     66      -1.9536      2.00000
     67      -1.8529      2.00000
     68      -1.7637      2.00000
     69      -1.7199      2.00000
     70      -1.6504      2.00000
     71      -1.5715      2.00000
     72      -1.4933      2.00000
     73      -1.4522      2.00000
     74      -1.3978      2.00000
     75      -1.3148      2.00000
     76      -1.2973      2.00000
     77      -1.1357      2.00000
     78      -1.0200      2.00000
     79      -0.9887      2.00000
     80      -0.7992      2.00095
     81      -0.6114      2.03272
     82      -0.5278      2.06777
     83      -0.4902      2.06878
     84      -0.3862      1.86238
     85      -0.3380      1.60106
     86      -0.2132      0.60775
     87      -0.1283      0.10659
     88      -0.0774     -0.02889
     89       0.0423     -0.05378
     90       0.5767     -0.00000
     91       0.8520     -0.00000
     92       1.1315     -0.00000
     93       1.6912     -0.00000
     94       1.9121     -0.00000
     95       2.5549     -0.00000
     96       2.8135     -0.00000
     97       3.4253     -0.00000
     98       3.7643     -0.00000
     99       4.2401     -0.00000
    100       4.3659     -0.00000


--------------------------------------------------------------------------------------------------------


 soft charge-density along one line, spin component           1
         0         1         2         3         4         5         6         7         8         9
 total charge-density along one line
 
 pseudopotential strength for first ion, spin component:           1
 -7.926   0.002   0.001  -0.008   0.000  -8.075   0.002   0.001
  0.002  -7.906  -0.004   0.001  -0.010   0.002  -8.055  -0.004
  0.001  -0.004  -7.914   0.003  -0.002   0.001  -0.004  -8.063
 -0.008   0.001   0.003  -7.908   0.002  -0.008   0.001   0.003
  0.000  -0.010  -0.002   0.002  -7.927   0.000  -0.010  -0.002
 -8.075   0.002   0.001  -0.008   0.000  -8.207   0.002   0.001
  0.002  -8.055  -0.004   0.001  -0.010   0.002  -8.188  -0.004
  0.001  -0.004  -8.063   0.003  -0.002   0.001  -0.004  -8.197
 -0.008   0.001   0.003  -8.057   0.002  -0.008   0.001   0.003
  0.000  -0.010  -0.002   0.002  -8.076   0.000  -0.009  -0.002
 -0.000   0.002  -0.005  -0.001   0.000  -0.000   0.002  -0.005
 -0.000   0.003  -0.007  -0.002   0.000  -0.000   0.003  -0.007
 -0.000   0.000  -0.000   0.000  -0.001  -0.000   0.000  -0.000
  0.000   0.001   0.000  -0.000   0.000   0.000   0.001   0.000
  0.000   0.000   0.000   0.000  -0.000   0.000   0.000   0.000
 -0.000  -0.000  -0.000   0.000  -0.001  -0.000  -0.000   0.000
  0.000   0.001  -0.000  -0.000   0.000   0.000   0.001  -0.000
  0.000   0.000   0.000   0.000  -0.000   0.000   0.000   0.000
 total augmentation occupancy for first ion, spin component:           1
  6.065  -0.052   0.076   0.254   0.007  -4.049   0.051  -0.056  -0.370  -0.005   0.020  -0.002   0.001   0.000   0.008  -0.000
 -0.052   5.590   0.047   0.021  -0.180   0.051  -3.400  -0.108  -0.001   0.031  -0.184   0.035   0.040  -0.076   0.002  -0.001
  0.076   0.047   6.210   0.062  -0.067  -0.056  -0.108  -4.201  -0.028   0.037   0.197  -0.023  -0.057   0.055   0.006   0.000
  0.254   0.021   0.062   5.852  -0.026  -0.370  -0.001  -0.028  -3.712   0.031   0.061  -0.007  -0.001   0.007  -0.002   0.000
  0.007  -0.180  -0.067  -0.026   5.968  -0.005   0.030   0.037   0.031  -3.972  -0.067   0.020  -0.012  -0.027   0.001  -0.001
 -4.049   0.051  -0.056  -0.370  -0.005   3.944  -0.050   0.041   0.459   0.003  -0.021   0.004  -0.001  -0.000  -0.013   0.000
  0.051  -3.400  -0.108  -0.001   0.030  -0.050   3.152   0.157  -0.015   0.083   0.189  -0.049  -0.042   0.071  -0.002   0.002
 -0.056  -0.108  -4.201  -0.028   0.037   0.041   0.157   4.099   0.002  -0.014  -0.193   0.029   0.056  -0.054  -0.006  -0.001
 -0.370  -0.001  -0.028  -3.712   0.031   0.459  -0.015   0.002   3.506  -0.036  -0.058   0.009   0.000  -0.008  -0.004  -0.000
 -0.005   0.031   0.037   0.031  -3.972   0.003   0.083  -0.014  -0.036   3.881   0.070  -0.025   0.013   0.024  -0.000   0.000
  0.020  -0.184   0.197   0.061  -0.067  -0.021   0.189  -0.193  -0.058   0.070   2.934  -0.780  -0.001  -0.028  -0.001   0.000
 -0.002   0.035  -0.023  -0.007   0.020   0.004  -0.049   0.029   0.009  -0.025  -0.780   0.236  -0.004   0.009   0.001   0.000
  0.001   0.040  -0.057  -0.001  -0.012  -0.001  -0.042   0.056   0.000   0.013  -0.001  -0.004   0.244   0.009  -0.001  -0.008
  0.000  -0.076   0.055   0.007  -0.027  -0.000   0.071  -0.054  -0.008   0.024  -0.028   0.009   0.009   0.226  -0.004  -0.000
  0.008   0.002   0.006  -0.002   0.001  -0.013  -0.002  -0.006  -0.004  -0.000  -0.001   0.001  -0.001  -0.004   0.249   0.000
 -0.000  -0.001   0.000   0.000  -0.001   0.000   0.002  -0.001  -0.000   0.000   0.000   0.000  -0.008  -0.000   0.000   0.000
  0.000   0.002  -0.001  -0.000   0.000  -0.000  -0.002   0.002   0.000  -0.000   0.001  -0.001  -0.000  -0.008   0.000   0.000
  0.001   0.000   0.000  -0.000  -0.000   0.000  -0.000   0.000   0.001   0.000   0.000  -0.000   0.000   0.000  -0.008  -0.000


------------------------ aborting loop because EDIFF is reached ----------------------------------------



 DIPCOR: dipole corrections for dipol
 direction  3 min pos    23,
 dipolmoment           0.000000      0.000000     -0.261452 electrons x Angstroem
 Tr[quadrupol]      -942.107011

 energy correction for charged system         0.000000 eV
 dipol+quadrupol energy correction            0.007505 eV
 added-field ion interaction          0.000000 eV  (added to PSCEN)

 
  *************** adding dipol energy to TOTEN NOW **************** 
    CHARGE:  cpu time    0.8358: real time    1.1330
    FORLOC:  cpu time    0.0170: real time    0.0170
    FORNL :  cpu time    3.8335: real time    4.3065
    STRESS:  cpu time   13.3077: real time   14.9810
    FORCOR:  cpu time    0.0690: real time    0.0690
    FORHAR:  cpu time    0.0366: real time    0.0366
    MIXING:  cpu time    0.0176: real time    0.0176
    OFIELD:  cpu time    0.0000: real time    0.0000

  FORCE on cell =-STRESS in cart. coord.  units (eV):
  Direction    XX          YY          ZZ          XY          YZ          ZX
  --------------------------------------------------------------------------------------
  Alpha Z   324.87462   324.87462   324.87462
  Ewald  110005.73257110033.08262************    34.57217    -6.45503    -7.63049
  Hartree112512.93128112522.90390************    14.66740    -1.75679    -3.59529
  E(xc)    -737.29594  -737.20273  -741.46447     0.12261    -0.04238    -0.02830
  Local  ************************227663.14283   -44.89735     6.46937    10.85175
  n-local    45.36245    46.11573    34.11543     0.54496    -1.10370    -0.13770
  augment   836.56845   835.40963   858.84668    -1.01992     0.78437     0.11481
  Kinetic  2386.74754  2382.83049  2447.90405    -3.67682     1.35412    -0.17563
  Fock        0.00000     0.00000     0.00000     0.00000     0.00000     0.00000
  -------------------------------------------------------------------------------------
  Total     -10.28775   -10.05660    -1.43929     0.31305    -0.75003    -0.60085
  in kB     -20.00029   -19.55093    -2.79810     0.60860    -1.45813    -1.16811
  external pressure =      -14.12 kB  Pullay stress =        0.00 kB


 VOLUME and BASIS-vectors are now :
 -----------------------------------------------------------------------------
  energy-cutoff  :      350.00
  volume of cell :      824.13
      direct lattice vectors                 reciprocal lattice vectors
     5.557859300  0.000000000  0.000000000     0.179925390 -0.103879972  0.000000000
     2.778929650  4.813247345  0.000000000     0.000000000  0.207759944  0.000000000
     0.000000000  0.000000000 30.806959674     0.000000000  0.000000000  0.032460198

  length of vectors
     5.557859300  5.557859300 30.806959674     0.207759944  0.207759944  0.032460198


 FORCES acting on ions
    electron-ion (+dipol)            ewald-force                    non-local-force                 convergence-correction
 -----------------------------------------------------------------------------------------------
   -.115E+01 0.668E+01 -.819E+03   0.120E+01 -.696E+01 0.819E+03   -.316E-02 0.283E+00 0.245E+00   -.270E-03 0.384E-03 0.170E-01
   0.325E+01 0.342E+01 -.134E+04   -.355E+01 -.384E+01 0.134E+04   0.227E+00 0.403E+00 -.196E+01   -.315E-04 -.756E-05 -.192E-02
   -.100E+02 -.603E+01 -.340E+03   0.103E+02 0.580E+01 0.342E+03   -.137E+00 0.340E+00 -.182E+01   0.324E-04 0.518E-04 -.325E-03
   0.480E+01 -.447E+02 -.345E+03   -.526E+01 0.497E+02 0.347E+03   0.409E+00 -.507E+01 -.209E+01   -.129E-04 -.484E-04 -.511E-03
   0.398E+02 0.261E+02 -.341E+03   -.444E+02 -.292E+02 0.342E+03   0.454E+01 0.301E+01 -.131E+01   0.351E-04 0.352E-04 -.509E-03
   -.411E+02 0.223E+02 -.342E+03   0.458E+02 -.248E+02 0.344E+03   -.465E+01 0.242E+01 -.174E+01   -.368E-04 0.114E-04 -.515E-03
   -.113E+01 0.159E+01 0.266E+04   0.110E+01 -.160E+01 -.266E+04   0.296E-01 0.212E-01 -.937E-01   0.356E-04 -.370E-04 0.261E-02
   0.402E+01 0.920E-01 -.257E+04   -.452E+01 0.366E+00 0.256E+04   0.361E+00 -.363E+00 0.127E+01   -.589E-04 0.560E-04 0.451E-02
   -.932E+01 -.566E+01 -.257E+04   0.938E+01 0.557E+01 0.257E+04   0.516E-01 0.174E+00 -.140E+01   0.408E-04 -.103E-04 0.422E-02
   0.997E+01 -.757E+01 -.256E+04   -.911E+01 0.684E+01 0.256E+04   -.840E+00 0.748E+00 0.125E+01   -.513E-04 0.660E-05 0.438E-02
   -.163E+01 0.782E+01 -.265E+04   0.912E+00 -.832E+01 0.266E+04   0.731E+00 0.413E+00 -.531E+01   -.125E-04 -.112E-04 0.240E-02
   0.918E+00 -.607E+00 0.295E+04   -.896E+00 0.569E+00 -.295E+04   -.497E-02 0.933E-01 -.799E+00   -.495E-04 -.142E-03 0.277E-02
   0.779E+00 0.150E+01 -.710E+03   -.798E+00 -.149E+01 0.710E+03   0.455E-01 0.307E-01 0.448E+00   0.243E-03 0.124E-03 0.157E-01
   0.299E-02 -.112E+02 0.115E+04   0.136E-01 0.116E+02 -.115E+04   -.174E-01 -.719E-01 0.146E+00   -.217E-04 -.281E-03 0.135E-01
   -.157E+00 -.126E+01 0.113E+04   0.112E+00 0.133E+01 -.113E+04   0.487E-01 -.539E-01 -.643E+00   0.272E-04 0.293E-04 0.135E-01
   0.860E+01 0.694E+01 0.116E+04   -.892E+01 -.712E+01 -.116E+04   0.471E-01 0.340E-01 -.178E+00   0.264E-03 0.135E-03 0.135E-01
   -.838E+01 0.621E+01 0.115E+04   0.870E+01 -.641E+01 -.115E+04   -.771E-01 0.649E-01 -.510E+00   -.250E-03 0.101E-03 0.137E-01
   -.251E+01 0.344E-01 0.296E+04   0.238E+01 0.102E-01 -.295E+04   0.182E+00 -.613E-01 -.696E+00   -.726E-04 0.709E-04 0.281E-02
   0.193E+01 -.117E+01 0.295E+04   -.185E+01 0.114E+01 -.295E+04   -.103E+00 0.543E-02 -.676E+00   0.690E-04 0.126E-03 0.278E-02
   0.374E+01 -.367E+01 -.747E+03   -.401E+01 0.383E+01 0.747E+03   0.277E+00 -.217E+00 -.606E-01   0.224E-03 -.392E-03 0.154E-01
   -.304E+01 -.304E+01 -.748E+03   0.345E+01 0.298E+01 0.748E+03   -.447E+00 0.509E-01 -.312E+00   -.213E-03 -.991E-04 0.151E-01
 -----------------------------------------------------------------------------------------------
   -.666E+00 -.223E+01 0.161E+02   -.520E-13 -.151E-13 -.341E-12   0.679E+00 0.225E+01 -.162E+02   -.110E-03 0.102E-03 0.140E+00
 
 
 POSITION                                       TOTAL-FORCE (eV/Angst)
 -----------------------------------------------------------------------------------
      5.60042      1.61010     16.79797         0.036744      0.004656      0.054904
      8.26755      4.72661     21.52405        -0.074769     -0.015951     -0.000395
      0.98015      1.25376     20.22389         0.165526      0.101936     -0.113335
      5.41129      0.93104     21.93761        -0.054047     -0.066124     -0.036708
      7.38210      4.13914     21.78845        -0.053786     -0.097192      0.038098
      3.63552      4.24627     21.87303        -0.035080     -0.050651     -0.028168
      2.79414      0.02460     12.14689         0.000333      0.015004      0.995987
      4.20118      2.41388     19.05740        -0.137028      0.094327      0.360341
      1.43792      2.43661     19.11165         0.113499      0.081433      0.254422
      5.60678      4.80392     19.06279         0.016234      0.015136     -0.083893
      2.78668      4.79350     19.43262         0.009253     -0.089372      0.092078
      0.02067      0.01967     12.15528         0.016472      0.055308     -0.070505
      2.81742      1.61984     16.76553         0.026259      0.043254      0.043060
      5.58908      3.23514     14.46769        -0.001502      0.295223     -0.438293
      2.80674      3.23600     14.49628         0.003828      0.016510      0.114966
      4.20066      0.83182     14.46912        -0.265635     -0.145626     -0.500147
      1.41966      0.82558     14.49051         0.245167     -0.137855     -0.523145
      4.17904      2.43051     12.13794         0.050673     -0.017304     -0.095321
      1.41108      2.42570     12.14687        -0.028281     -0.028724     -0.086017
      4.19384      4.03874     16.80634         0.008182     -0.063475      0.020571
      7.00828      4.03747     16.81448        -0.042042     -0.010515      0.001499
 -----------------------------------------------------------------------------------
    total drift:                                0.013349      0.014329      0.006328


--------------------------------------------------------------------------------------------------------



  FREE ENERGIE OF THE ION-ELECTRON SYSTEM (eV)
  ---------------------------------------------------
  free  energy   TOTEN  =      -115.32046469 eV

  energy  without entropy=     -115.29540008  energy(sigma->0) =     -115.31210982
 


--------------------------------------------------------------------------------------------------------


    POTLOK:  cpu time    0.0621: real time    0.0621


--------------------------------------------------------------------------------------------------------


     LOOP+:  cpu time 1536.0727: real time 1732.4527
    4ORBIT:  cpu time    0.0000: real time    0.0000

 total amount of memory used by VASP MPI-rank0   164315. kBytes
=======================================================================

   base      :      30000. kBytes
   nonlr-proj:       2362. kBytes
   fftplans  :       2967. kBytes
   grid      :       6321. kBytes
   one-center:         93. kBytes
   wavefun   :     122572. kBytes
 
  
  
 General timing and accounting informations for this job:
 ========================================================
  
                  Total CPU time used (sec):     1554.140
                            User time (sec):     1525.177
                          System time (sec):       28.963
                         Elapsed time (sec):     1752.839
  
                   Maximum memory used (kb):      218200.
                   Average memory used (kb):           0.
  
                          Minor page faults:       116968
                          Major page faults:            0
                 Voluntary context switches:         1514
