       N       E                     dE             d eps       ncg     rms          rms(c)
DAV:   1     0.102856002430E+04    0.10286E+04   -0.58318E+04 19288   0.103E+03
DAV:   2    -0.303987171472E+02   -0.10590E+04   -0.98500E+03 24088   0.259E+02
DAV:   3    -0.121348641474E+03   -0.90950E+02   -0.84229E+02 22968   0.756E+01
DAV:   4    -0.125731496877E+03   -0.43829E+01   -0.41785E+01 25556   0.169E+01
DAV:   5    -0.125870828771E+03   -0.13933E+00   -0.13819E+00 26724   0.295E+00    0.430E+01
DAV:   6    -0.118327681312E+03    0.75431E+01   -0.37203E+01 23088   0.253E+01    0.325E+01
DAV:   7    -0.136848517434E+03   -0.18521E+02   -0.83466E+01 25136   0.521E+01    0.426E+01
DAV:   8    -0.117498720497E+03    0.19350E+02   -0.45692E+01 26456   0.373E+01    0.142E+01
DAV:   9    -0.131601855644E+03   -0.14103E+02   -0.73149E+01 28420   0.439E+01    0.327E+01
DAV:  10    -0.119753644911E+03    0.11848E+02   -0.39211E+01 27228   0.344E+01    0.199E+01
DAV:  11    -0.116756399228E+03    0.29972E+01   -0.25204E+01 29268   0.186E+01    0.116E+01
DAV:  12    -0.115816530777E+03    0.93987E+00   -0.25188E+00 22600   0.674E+00    0.574E+00
DAV:  13    -0.115570098688E+03    0.24643E+00   -0.12676E+00 22384   0.517E+00    0.364E+00
DAV:  14    -0.115547363373E+03    0.22735E-01   -0.26931E-01 27304   0.189E+00    0.279E+00
DAV:  15    -0.115533577236E+03    0.13786E-01   -0.93479E-02 27484   0.139E+00    0.234E+00
DAV:  16    -0.115511097573E+03    0.22480E-01   -0.86390E-02 24352   0.149E+00    0.140E+00
DAV:  17    -0.115505853388E+03    0.52442E-02   -0.68487E-02 23000   0.127E+00    0.122E+00
DAV:  18    -0.115496981036E+03    0.88724E-02   -0.40543E-02 24864   0.833E-01    0.474E-01
DAV:  19    -0.115495734857E+03    0.12462E-02   -0.31967E-03 21312   0.257E-01    0.368E-01
DAV:  20    -0.115494877778E+03    0.85708E-03   -0.24486E-03 23512   0.211E-01    0.247E-01
DAV:  21    -0.115494764239E+03    0.11354E-03   -0.26804E-03 24704   0.198E-01    0.171E-01
DAV:  22    -0.115494509349E+03    0.25489E-03   -0.94796E-04 23592   0.132E-01    0.996E-02
DAV:  23    -0.115494534959E+03   -0.25611E-04   -0.32787E-04 22168   0.681E-02    0.994E-02
DAV:  24    -0.115494598527E+03   -0.63568E-04   -0.24485E-04 21848   0.647E-02    0.592E-02
DAV:  25    -0.115494702577E+03   -0.10405E-03   -0.10599E-04 20084   0.436E-02    0.504E-02
DAV:  26    -0.115494854795E+03   -0.15222E-03   -0.72128E-05 17220   0.320E-02    0.265E-02
DAV:  27    -0.115494984275E+03   -0.12948E-03   -0.34934E-05 14332   0.249E-02    0.220E-02
DAV:  28    -0.115495175308E+03   -0.19103E-03   -0.61034E-05 19536   0.241E-02    0.278E-02
DAV:  29    -0.115495299704E+03   -0.12440E-03   -0.96728E-06 12344   0.126E-02    0.203E-02
DAV:  30    -0.115495372602E+03   -0.72898E-04   -0.70911E-06 12264   0.894E-03    0.133E-02
DAV:  31    -0.115495483315E+03   -0.11071E-03   -0.79168E-06 12464   0.102E-02    0.167E-02
DAV:  32    -0.115495546904E+03   -0.63589E-04   -0.45945E-06 12320   0.819E-03    0.867E-03
DAV:  33    -0.115495585839E+03   -0.38934E-04   -0.24168E-06 12272   0.525E-03    0.480E-03
DAV:  34    -0.115495620279E+03   -0.34440E-04   -0.22834E-06 12204   0.489E-03    0.431E-03
DAV:  35    -0.115495631686E+03   -0.11406E-04   -0.61754E-07 11496   0.308E-03    0.271E-03
DAV:  36    -0.115495636752E+03   -0.50662E-05   -0.22285E-07 10648   0.143E-03
   1 F= -.11548986E+03 E0= -.11548048E+03  d E =-.281335E-01
