       N       E                     dE             d eps       ncg     rms          rms(c)
DAV:   1     0.102859745745E+04    0.10286E+04   -0.58315E+04 19288   0.103E+03
DAV:   2    -0.290850926383E+02   -0.10577E+04   -0.98323E+03 23936   0.259E+02
DAV:   3    -0.121064418200E+03   -0.91979E+02   -0.85104E+02 23048   0.759E+01
DAV:   4    -0.125524527399E+03   -0.44601E+01   -0.42472E+01 25672   0.170E+01
DAV:   5    -0.125660085898E+03   -0.13556E+00   -0.13449E+00 26440   0.292E+00    0.431E+01
DAV:   6    -0.118260313208E+03    0.73998E+01   -0.36457E+01 23296   0.253E+01    0.327E+01
DAV:   7    -0.138227506716E+03   -0.19967E+02   -0.92458E+01 22980   0.548E+01    0.434E+01
DAV:   8    -0.122681277188E+03    0.15546E+02   -0.52949E+01 24124   0.410E+01    0.253E+01
DAV:   9    -0.131942401853E+03   -0.92611E+01   -0.68691E+01 30016   0.490E+01    0.317E+01
DAV:  10    -0.120358338829E+03    0.11584E+02   -0.55691E+01 26872   0.362E+01    0.209E+01
DAV:  11    -0.116366692198E+03    0.39916E+01   -0.14136E+01 28384   0.170E+01    0.105E+01
DAV:  12    -0.115984831755E+03    0.38186E+00   -0.51481E+00 27608   0.996E+00    0.808E+00
DAV:  13    -0.115580821555E+03    0.40401E+00   -0.17624E+00 27592   0.558E+00    0.458E+00
DAV:  14    -0.115464905706E+03    0.11592E+00   -0.67792E-01 24320   0.398E+00    0.317E+00
DAV:  15    -0.115439952115E+03    0.24954E-01   -0.13537E-01 25128   0.160E+00    0.228E+00
DAV:  16    -0.115426264984E+03    0.13687E-01   -0.19306E-02 21960   0.657E-01    0.151E+00
DAV:  17    -0.115411761356E+03    0.14504E-01   -0.63399E-02 22800   0.115E+00    0.839E-01
DAV:  18    -0.115406769381E+03    0.49920E-02   -0.28345E-02 24056   0.823E-01    0.382E-01
DAV:  19    -0.115405981362E+03    0.78802E-03   -0.60342E-03 22784   0.336E-01    0.234E-01
DAV:  20    -0.115405423278E+03    0.55808E-03   -0.20468E-03 21448   0.209E-01    0.230E-01
DAV:  21    -0.115404842861E+03    0.58042E-03   -0.15098E-03 23976   0.153E-01    0.140E-01
DAV:  22    -0.115404700906E+03    0.14195E-03   -0.50981E-04 21824   0.105E-01    0.990E-02
DAV:  23    -0.115404668849E+03    0.32057E-04   -0.24701E-04 22208   0.674E-02    0.536E-02
DAV:  24    -0.115404760176E+03   -0.91326E-04   -0.21324E-04 21672   0.627E-02    0.477E-02
DAV:  25    -0.115404888101E+03   -0.12793E-03   -0.11345E-04 20956   0.436E-02    0.368E-02
DAV:  26    -0.115405000413E+03   -0.11231E-03   -0.48438E-05 15676   0.273E-02    0.282E-02
DAV:  27    -0.115405173826E+03   -0.17341E-03   -0.28219E-05 15248   0.186E-02    0.231E-02
DAV:  28    -0.115405340835E+03   -0.16701E-03   -0.21286E-05 14004   0.169E-02    0.165E-02
DAV:  29    -0.115405491554E+03   -0.15072E-03   -0.16188E-05 12576   0.149E-02    0.150E-02
DAV:  30    -0.115405601939E+03   -0.11039E-03   -0.90076E-06 12368   0.112E-02    0.111E-02
DAV:  31    -0.115405657647E+03   -0.55708E-04   -0.40123E-06 12320   0.736E-03    0.916E-03
DAV:  32    -0.115405699790E+03   -0.42143E-04   -0.30850E-06 12284   0.572E-03    0.588E-03
DAV:  33    -0.115405752850E+03   -0.53060E-04   -0.19593E-06 12308   0.465E-03    0.594E-03
DAV:  34    -0.115405775617E+03   -0.22767E-04   -0.17277E-06 12116   0.459E-03    0.410E-03
DAV:  35    -0.115405777780E+03   -0.21630E-05   -0.31570E-07 10716   0.210E-03
   1 F= -.11539970E+03 E0= -.11539058E+03  d E =-.273578E-01
