       N       E                     dE             d eps       ncg     rms          rms(c)
DAV:   1     0.102211927297E+04    0.10221E+04   -0.58233E+04 19264   0.103E+03
DAV:   2    -0.290985693835E+02   -0.10512E+04   -0.97557E+03 23912   0.259E+02
DAV:   3    -0.120945223209E+03   -0.91847E+02   -0.84968E+02 22952   0.759E+01
DAV:   4    -0.125367309969E+03   -0.44221E+01   -0.42136E+01 25872   0.168E+01
DAV:   5    -0.125505924422E+03   -0.13861E+00   -0.13740E+00 26980   0.292E+00    0.426E+01
DAV:   6    -0.120325600375E+03    0.51803E+01   -0.33032E+01 22436   0.236E+01    0.356E+01
DAV:   7    -0.172459567021E+03   -0.52134E+02   -0.23911E+02 29448   0.801E+01    0.579E+01
DAV:   8    -0.145928608684E+03    0.26531E+02   -0.10448E+02 27588   0.433E+01    0.454E+01
DAV:   9    -0.135645701992E+03    0.10283E+02   -0.60021E+01 33064   0.459E+01    0.325E+01
DAV:  10    -0.119082516085E+03    0.16563E+02   -0.42143E+01 26980   0.356E+01    0.180E+01
DAV:  11    -0.117083165142E+03    0.19994E+01   -0.20888E+01 28008   0.189E+01    0.138E+01
DAV:  12    -0.116026154453E+03    0.10570E+01   -0.86765E+00 24992   0.103E+01    0.664E+00
DAV:  13    -0.115842314552E+03    0.18384E+00   -0.32617E-01 25692   0.260E+00    0.517E+00
DAV:  14    -0.115749189892E+03    0.93125E-01   -0.10559E-01 26976   0.170E+00    0.473E+00
DAV:  15    -0.115706857174E+03    0.42333E-01   -0.10902E-01 25628   0.123E+00    0.369E+00
DAV:  16    -0.115692511438E+03    0.14346E-01   -0.21624E-01 20464   0.233E+00    0.196E+00
DAV:  17    -0.115659351287E+03    0.33160E-01   -0.11345E-01 23244   0.175E+00    0.104E+00
DAV:  18    -0.115651338552E+03    0.80127E-02   -0.43569E-02 25700   0.777E-01    0.702E-01
DAV:  19    -0.115648459615E+03    0.28789E-02   -0.13111E-02 23464   0.460E-01    0.549E-01
DAV:  20    -0.115646065191E+03    0.23944E-02   -0.84533E-03 26700   0.381E-01    0.238E-01
DAV:  21    -0.115646740450E+03   -0.67526E-03   -0.61973E-03 24960   0.306E-01    0.421E-01
DAV:  22    -0.115646060846E+03    0.67960E-03   -0.91410E-04 21040   0.132E-01    0.323E-01
DAV:  23    -0.115645055754E+03    0.10051E-02   -0.34749E-03 24904   0.236E-01    0.967E-02
DAV:  24    -0.115645047610E+03    0.81441E-05   -0.42407E-04 22588   0.790E-02    0.579E-02
DAV:  25    -0.115645097648E+03   -0.50038E-04   -0.16153E-04 20148   0.506E-02    0.741E-02
DAV:  26    -0.115645130849E+03   -0.33201E-04   -0.89369E-05 17376   0.399E-02    0.473E-02
DAV:  27    -0.115645200432E+03   -0.69583E-04   -0.74675E-05 15504   0.350E-02    0.213E-02
DAV:  28    -0.115645372326E+03   -0.17189E-03   -0.72437E-05 17680   0.341E-02    0.354E-02
DAV:  29    -0.115645475663E+03   -0.10334E-03   -0.23270E-05 13144   0.168E-02    0.241E-02
DAV:  30    -0.115645544238E+03   -0.68575E-04   -0.42267E-06 11184   0.951E-03    0.223E-02
DAV:  31    -0.115645635060E+03   -0.90822E-04   -0.50707E-06 12080   0.853E-03    0.176E-02
DAV:  32    -0.115645724834E+03   -0.89774E-04   -0.89589E-06 12308   0.106E-02    0.670E-03
DAV:  33    -0.115645752742E+03   -0.27907E-04   -0.29562E-06 11184   0.628E-03    0.468E-03
DAV:  34    -0.115645768455E+03   -0.15713E-04   -0.98451E-07 10588   0.375E-03    0.606E-03
DAV:  35    -0.115645781801E+03   -0.13346E-04   -0.81914E-07 10788   0.332E-03    0.285E-03
DAV:  36    -0.115645792181E+03   -0.10380E-04   -0.32617E-07 10384   0.189E-03    0.221E-03
DAV:  37    -0.115645794607E+03   -0.24253E-05   -0.89832E-08  9972   0.117E-03
   1 F= -.11564470E+03 E0= -.11563511E+03  d E =-.287690E-01
