       N       E                     dE             d eps       ncg     rms          rms(c)
DAV:   1     0.101377308500E+04    0.10138E+04   -0.58198E+04 19320   0.103E+03
DAV:   2    -0.293302559527E+02   -0.10431E+04   -0.96969E+03 23840   0.258E+02
DAV:   3    -0.120965569369E+03   -0.91635E+02   -0.84790E+02 23120   0.754E+01
DAV:   4    -0.125363916092E+03   -0.43983E+01   -0.41766E+01 25656   0.167E+01
DAV:   5    -0.125510605189E+03   -0.14669E+00   -0.14520E+00 27180   0.300E+00    0.425E+01
DAV:   6    -0.120344604019E+03    0.51660E+01   -0.32257E+01 22468   0.232E+01    0.354E+01
DAV:   7    -0.172746083409E+03   -0.52401E+02   -0.24035E+02 29440   0.794E+01    0.578E+01
DAV:   8    -0.145976398683E+03    0.26770E+02   -0.10504E+02 27588   0.437E+01    0.455E+01
DAV:   9    -0.135042017160E+03    0.10934E+02   -0.60576E+01 33380   0.454E+01    0.320E+01
DAV:  10    -0.119105003383E+03    0.15937E+02   -0.41192E+01 26892   0.348E+01    0.179E+01
DAV:  11    -0.117028587722E+03    0.20764E+01   -0.20747E+01 27972   0.187E+01    0.135E+01
DAV:  12    -0.116029794431E+03    0.99879E+00   -0.81424E+00 24784   0.984E+00    0.624E+00
DAV:  13    -0.115876095507E+03    0.15370E+00   -0.30149E-01 25696   0.247E+00    0.495E+00
DAV:  14    -0.115790592765E+03    0.85503E-01   -0.10231E-01 25192   0.171E+00    0.449E+00
DAV:  15    -0.115759472415E+03    0.31120E-01   -0.21049E-01 25876   0.169E+00    0.330E+00
DAV:  16    -0.115742345497E+03    0.17127E-01   -0.26539E-01 21228   0.218E+00    0.186E+00
DAV:  17    -0.115717421904E+03    0.24924E-01   -0.77837E-02 21752   0.148E+00    0.108E+00
DAV:  18    -0.115710155934E+03    0.72660E-02   -0.43851E-02 25908   0.748E-01    0.644E-01
DAV:  19    -0.115708604028E+03    0.15519E-02   -0.10386E-02 22232   0.414E-01    0.553E-01
DAV:  20    -0.115706471755E+03    0.21323E-02   -0.69806E-03 27256   0.347E-01    0.239E-01
DAV:  21    -0.115707176223E+03   -0.70447E-03   -0.39074E-03 23432   0.256E-01    0.388E-01
DAV:  22    -0.115706898552E+03    0.27767E-03   -0.84297E-04 21668   0.132E-01    0.349E-01
DAV:  23    -0.115705693660E+03    0.12049E-02   -0.39344E-03 25628   0.248E-01    0.955E-02
DAV:  24    -0.115705751620E+03   -0.57960E-04   -0.48655E-04 22396   0.798E-02    0.845E-02
DAV:  25    -0.115705801229E+03   -0.49610E-04   -0.13659E-04 19084   0.445E-02    0.980E-02
DAV:  26    -0.115705806035E+03   -0.48059E-05   -0.10904E-04 16004   0.441E-02    0.527E-02
DAV:  27    -0.115705890637E+03   -0.84601E-04   -0.12573E-04 18256   0.436E-02    0.203E-02
DAV:  28    -0.115706044796E+03   -0.15416E-03   -0.57466E-05 16148   0.294E-02    0.363E-02
DAV:  29    -0.115706128139E+03   -0.83343E-04   -0.20260E-05 12932   0.151E-02    0.223E-02
DAV:  30    -0.115706189970E+03   -0.61831E-04   -0.40923E-06 11000   0.880E-03    0.256E-02
DAV:  31    -0.115706278274E+03   -0.88304E-04   -0.53635E-06 12560   0.830E-03    0.231E-02
DAV:  32    -0.115706353709E+03   -0.75435E-04   -0.13509E-05 12132   0.137E-02    0.603E-03
DAV:  33    -0.115706371444E+03   -0.17735E-04   -0.20935E-06 10620   0.537E-03    0.412E-03
DAV:  34    -0.115706385773E+03   -0.14329E-04   -0.94936E-07 10396   0.360E-03    0.302E-03
DAV:  35    -0.115706398725E+03   -0.12952E-04   -0.59424E-07 10564   0.261E-03    0.218E-03
DAV:  36    -0.115706402486E+03   -0.37607E-05   -0.22006E-07  9924   0.185E-03
   1 F= -.11570625E+03 E0= -.11569665E+03  d E =-.287940E-01
