       N       E                     dE             d eps       ncg     rms          rms(c)
DAV:   1     0.102231794211E+04    0.10223E+04   -0.58237E+04 19264   0.103E+03
DAV:   2    -0.295608841578E+02   -0.10519E+04   -0.97742E+03 23964   0.259E+02
DAV:   3    -0.121250260756E+03   -0.91689E+02   -0.84790E+02 22920   0.757E+01
DAV:   4    -0.125687054663E+03   -0.44368E+01   -0.42248E+01 25800   0.169E+01
DAV:   5    -0.125827503302E+03   -0.14045E+00   -0.13941E+00 26888   0.294E+00    0.426E+01
DAV:   6    -0.118909364120E+03    0.69181E+01   -0.30159E+01 21912   0.206E+01    0.314E+01
DAV:   7    -0.142922073830E+03   -0.24013E+02   -0.10491E+02 22900   0.574E+01    0.444E+01
DAV:   8    -0.122009794376E+03    0.20912E+02   -0.42167E+01 24284   0.327E+01    0.225E+01
DAV:   9    -0.126077402756E+03   -0.40676E+01   -0.60404E+01 25324   0.349E+01    0.267E+01
DAV:  10    -0.123744244124E+03    0.23332E+01   -0.33687E+01 27240   0.366E+01    0.265E+01
DAV:  11    -0.118158363983E+03    0.55859E+01   -0.23867E+01 31960   0.246E+01    0.148E+01
DAV:  12    -0.116987787024E+03    0.11706E+01   -0.79973E+00 27100   0.124E+01    0.107E+01
DAV:  13    -0.116242793251E+03    0.74499E+00   -0.39455E+00 27692   0.734E+00    0.546E+00
DAV:  14    -0.116034411282E+03    0.20838E+00   -0.10738E+00 23088   0.481E+00    0.345E+00
DAV:  15    -0.116022834506E+03    0.11577E-01   -0.84900E-02 21684   0.112E+00    0.276E+00
DAV:  16    -0.116010477733E+03    0.12357E-01   -0.40973E-02 25060   0.800E-01    0.209E+00
DAV:  17    -0.115995504947E+03    0.14973E-01   -0.10189E-01 20952   0.134E+00    0.954E-01
DAV:  18    -0.115991499289E+03    0.40057E-02   -0.33634E-02 20632   0.771E-01    0.608E-01
DAV:  19    -0.115988957933E+03    0.25414E-02   -0.85140E-03 25444   0.373E-01    0.391E-01
DAV:  20    -0.115988734467E+03    0.22347E-03   -0.25410E-03 27220   0.214E-01    0.358E-01
DAV:  21    -0.115988737515E+03   -0.30485E-05   -0.18353E-03 21104   0.189E-01    0.286E-01
DAV:  22    -0.115988449921E+03    0.28759E-03   -0.18148E-03 24148   0.183E-01    0.228E-01
DAV:  23    -0.115988200999E+03    0.24892E-03   -0.52170E-04 23828   0.931E-02    0.108E-01
DAV:  24    -0.115988184099E+03    0.16900E-04   -0.12302E-04 17560   0.438E-02    0.669E-02
DAV:  25    -0.115988260735E+03   -0.76635E-04   -0.13689E-04 18712   0.499E-02    0.328E-02
DAV:  26    -0.115988341151E+03   -0.80417E-04   -0.61052E-05 15768   0.319E-02    0.249E-02
DAV:  27    -0.115988493818E+03   -0.15267E-03   -0.28385E-05 14812   0.223E-02    0.284E-02
DAV:  28    -0.115988624053E+03   -0.13024E-03   -0.26499E-05 13608   0.184E-02    0.240E-02
DAV:  29    -0.115988716307E+03   -0.92254E-04   -0.85709E-06 11780   0.131E-02    0.175E-02
DAV:  30    -0.115988840486E+03   -0.12418E-03   -0.10982E-05 12836   0.133E-02    0.157E-02
DAV:  31    -0.115988916529E+03   -0.76043E-04   -0.53658E-06 11868   0.841E-03    0.133E-02
DAV:  32    -0.115988947900E+03   -0.31372E-04   -0.19361E-06 11164   0.542E-03    0.107E-02
DAV:  33    -0.115988968169E+03   -0.20268E-04   -0.10739E-06 11104   0.386E-03    0.859E-03
DAV:  34    -0.115988981010E+03   -0.12841E-04   -0.15039E-06 10696   0.448E-03    0.341E-03
DAV:  35    -0.115988988043E+03   -0.70329E-05   -0.43458E-07 10400   0.236E-03
   1 F= -.11598727E+03 E0= -.11597407E+03  d E =-.395943E-01
