 vasp.5.4.4.18Apr17-6-g9f103f2a35 (build Apr 28 2017 10:53:45) complex          
  
 executed on             LinuxIFC date 2019.07.18  16:37:34
 running on   16 total cores
 distrk:  each k-point on   16 cores,    1 groups
 distr:  one band on NCORES_PER_BAND=   4 cores,    4 groups


--------------------------------------------------------------------------------------------------------


 INCAR:
 POTCAR:    PAW_PBE Au 04Oct2007                  
 POTCAR:    PAW_PBE Ir 06Sep2000                  
 POTCAR:    PAW_PBE Pt 04Feb2005                  
 POTCAR:    PAW_PBE Au 04Oct2007                  
   VRHFIN =Au: s1d10                                                            
   LEXCH  = PE                                                                  
   EATOM  =   926.0867 eV,   68.0654 Ry                                         
                                                                                
   TITEL  = PAW_PBE Au 04Oct2007                                                
   LULTRA =        F    use ultrasoft PP ?                                      
   IUNSCR =        1    unscreen: 0-lin 1-nonlin 2-no                           
   RPACOR =    2.330    partial core radius                                     
   POMASS =  196.966; ZVAL   =   11.000    mass and valenz                      
   RCORE  =    2.500    outmost cutoff radius                                   
   RWIGS  =    2.840; RWIGS  =    1.503    wigner-seitz radius (au A)           
   ENMAX  =  229.943; ENMIN  =  172.457 eV                                      
   ICORE  =        3    local potential                                         
   LCOR   =        T    correct aug charges                                     
   LPAW   =        T    paw PP                                                  
   EAUG   =  356.670                                                            
   DEXC   =    0.000                                                            
   RMAX   =    2.562    core radius for proj-oper                               
   RAUG   =    1.300    factor for augmentation sphere                          
   RDEP   =    2.598    radius for radial grids                                 
   RDEPT  =    2.193    core radius for aug-charge                              
                                                                                
   Atomic configuration                                                         
   16 entries                                                                   
     n  l   j            E        occ.                                          
     1  0  0.50    -80748.5001   2.0000                                         
     2  0  0.50    -14244.7466   2.0000                                         
     2  1  1.50    -12310.9591   6.0000                                         
     3  0  0.50     -3362.1768   2.0000                                         
     3  1  1.50     -2801.5463   6.0000                                         
     3  2  2.50     -2203.8206  10.0000                                         
     4  0  0.50      -729.8168   2.0000                                         
     4  1  1.50      -546.0527   6.0000                                         
     4  2  2.50      -325.7302  10.0000                                         
     4  3  3.50       -81.1472  14.0000                                         
     5  0  0.50      -108.3201   2.0000                                         
     5  1  1.50       -59.7479   6.0000                                         
     5  2  2.50        -6.8783  10.0000                                         
     6  0  0.50        -5.7602   1.0000                                         
     6  1  1.50        -6.8029   0.0000                                         
     5  3  2.50        -1.3606   0.0000                                         
   Description                                                                  
     l       E           TYP  RCUT    TYP  RCUT                                 
     2     -6.8782861     23  2.500                                             
     2     -8.2388687     23  2.500                                             
     0     -5.7601759     23  2.500                                             
     0     -0.8493231     23  2.500                                             
     1     -2.7211652     23  2.500                                             
     1     27.2116520     23  2.500                                             
     3     -1.3605826     23  2.500                                             
  local pseudopotential read in
  partial core-charges read in
  partial kinetic energy density read in
  atomic valenz-charges read in
  non local Contribution for L=           2  read in
    real space projection operators read in
  non local Contribution for L=           2  read in
    real space projection operators read in
  non local Contribution for L=           0  read in
    real space projection operators read in
  non local Contribution for L=           0  read in
    real space projection operators read in
  non local Contribution for L=           1  read in
    real space projection operators read in
  non local Contribution for L=           1  read in
    real space projection operators read in
    PAW grid and wavefunctions read in
 
   number of l-projection  operators is LMAX  =           6
   number of lm-projection operators is LMMAX =          18
 
 POTCAR:    PAW_PBE Ir 06Sep2000                  
   VRHFIN =Ir: s1d8                                                             
   LEXCH  = PE                                                                  
   EATOM  =   560.1833 eV,   41.1723 Ry                                         
                                                                                
   TITEL  = PAW_PBE Ir 06Sep2000                                                
   LULTRA =        F    use ultrasoft PP ?                                      
   IUNSCR =        1    unscreen: 0-lin 1-nonlin 2-no                           
   RPACOR =    2.250    partial core radius                                     
   POMASS =  192.220; ZVAL   =    9.000    mass and valenz                      
   RCORE  =    2.600    outmost cutoff radius                                   
   RWIGS  =    2.690; RWIGS  =    1.423    wigner-seitz radius (au A)           
   ENMAX  =  210.864; ENMIN  =  158.148 eV                                      
   RCLOC  =    1.857    cutoff for local pot                                    
   LCOR   =        T    correct aug charges                                     
   LPAW   =        T    paw PP                                                  
   EAUG   =  318.962                                                            
   DEXC   =    0.000                                                            
   RMAX   =    2.667    core radius for proj-oper                               
   RAUG   =    1.300    factor for augmentation sphere                          
   RDEP   =    2.748    radius for radial grids                                 
   RDEPT  =    2.300    core radius for aug-charge                              
                                                                                
   Atomic configuration                                                         
   16 entries                                                                   
     n  l   j            E        occ.                                          
     1  0  0.50    -76100.0449   2.0000                                         
     2  0  0.50    -13308.1683   2.0000                                         
     2  1  1.50    -11558.0021   6.0000                                         
     3  0  0.50     -3110.7274   2.0000                                         
     3  1  1.50     -2599.2109   6.0000                                         
     3  2  2.50     -2037.1515  10.0000                                         
     4  0  0.50      -661.6001   2.0000                                         
     4  1  1.50      -493.8981   6.0000                                         
     4  2  2.50      -288.1909  10.0000                                         
     4  3  3.50       -59.5718  14.0000                                         
     5  0  0.50       -95.3879   2.0000                                         
     5  1  1.50       -52.2747   6.0000                                         
     5  2  2.50        -5.4180   8.0000                                         
     6  0  0.50        -5.5479   1.0000                                         
     6  1  1.50        -6.8029   0.0000                                         
     5  3  2.50        -1.3606   0.0000                                         
   Description                                                                  
     l       E           TYP  RCUT    TYP  RCUT                                 
     2     -5.4179967     23  2.600                                             
     2     -6.7785793     23  2.600                                             
     0     -5.5478636     23  2.600                                             
     0      2.2542272     23  2.600                                             
     1     -2.7211652     23  2.600                                             
     1     20.4087390     23  2.600                                             
  local pseudopotential read in
  partial core-charges read in
  partial kinetic energy density read in
  atomic valenz-charges read in
  non local Contribution for L=           2  read in
    real space projection operators read in
  non local Contribution for L=           2  read in
    real space projection operators read in
  non local Contribution for L=           0  read in
    real space projection operators read in
  non local Contribution for L=           0  read in
    real space projection operators read in
  non local Contribution for L=           1  read in
    real space projection operators read in
  non local Contribution for L=           1  read in
    real space projection operators read in
    PAW grid and wavefunctions read in
 
   number of l-projection  operators is LMAX  =           6
   number of lm-projection operators is LMMAX =          18
 
 POTCAR:    PAW_PBE Pt 04Feb2005                  
   VRHFIN =Pt: s1d9                                                             
   LEXCH  = PE                                                                  
   EATOM  =   729.1176 eV,   53.5886 Ry                                         
                                                                                
   TITEL  = PAW_PBE Pt 04Feb2005                                                
   LULTRA =        F    use ultrasoft PP ?                                      
   IUNSCR =        1    unscreen: 0-lin 1-nonlin 2-no                           
   RPACOR =    2.330    partial core radius                                     
   POMASS =  195.080; ZVAL   =   10.000    mass and valenz                      
   RCORE  =    2.600    outmost cutoff radius                                   
   RWIGS  =    2.750; RWIGS  =    1.455    wigner-seitz radius (au A)           
   ENMAX  =  230.283; ENMIN  =  172.712 eV                                      
   ICORE  =        3    local potential                                         
   LCOR   =        T    correct aug charges                                     
   LPAW   =        T    paw PP                                                  
   EAUG   =  358.966                                                            
   DEXC   =    0.000                                                            
   RMAX   =    2.658    core radius for proj-oper                               
   RAUG   =    1.300    factor for augmentation sphere                          
   RDEP   =    2.761    radius for radial grids                                 
   RDEPT  =    2.203    core radius for aug-charge                              
                                                                                
   Atomic configuration                                                         
   16 entries                                                                   
     n  l   j            E        occ.                                          
     1  0  0.50    -78401.1885   2.0000                                         
     2  0  0.50    -13770.7750   2.0000                                         
     2  1  1.50    -11931.0468   6.0000                                         
     3  0  0.50     -3234.7234   2.0000                                         
     3  1  1.50     -2699.2216   6.0000                                         
     3  2  2.50     -2119.5714  10.0000                                         
     4  0  0.50      -695.1528   2.0000                                         
     4  1  1.50      -519.6034   6.0000                                         
     4  2  2.50      -306.6786  10.0000                                         
     4  3  3.50       -70.1041  14.0000                                         
     5  0  0.50      -101.7747   2.0000                                         
     5  1  1.50       -55.9873   6.0000                                         
     5  2  2.50        -6.1423   9.0000                                         
     6  0  0.50        -5.6573   1.0000                                         
     6  1  1.50        -6.8029   0.0000                                         
     5  3  2.50        -1.3606   0.0000                                         
   Description                                                                  
     l       E           TYP  RCUT    TYP  RCUT                                 
     2     -6.1423404     23  2.500                                             
     2     -7.5029230     23  2.500                                             
     0     -5.6573207     23  2.500                                             
     0      0.7416693     23  2.500                                             
     1     -2.7211652     23  2.600                                             
     1     20.4087390     23  2.600                                             
     3     -1.3605826     23  2.500                                             
  local pseudopotential read in
  partial core-charges read in
  partial kinetic energy density read in
  atomic valenz-charges read in
  non local Contribution for L=           2  read in
    real space projection operators read in
  non local Contribution for L=           2  read in
    real space projection operators read in
  non local Contribution for L=           0  read in
    real space projection operators read in
  non local Contribution for L=           0  read in
    real space projection operators read in
  non local Contribution for L=           1  read in
    real space projection operators read in
  non local Contribution for L=           1  read in
    real space projection operators read in
    PAW grid and wavefunctions read in
 
   number of l-projection  operators is LMAX  =           6
   number of lm-projection operators is LMMAX =          18
 
 Optimization of the real space projectors (new method)

 maximal supplied QI-value         = 15.12
 optimisation between [QCUT,QGAM] = [  9.52, 19.05] = [ 25.40,101.61] Ry 
 Optimized for a Real-space Cutoff    1.57 Angstroem

   l    n(q)    QCUT    max X(q) W(low)/X(q) W(high)/X(q)  e(spline) 
   2      8     9.524    60.898    0.38E-03    0.43E-04    0.84E-07
   2      8     9.524    58.894    0.38E-03    0.47E-04    0.88E-07
   0      9     9.524   109.617    0.60E-04    0.64E-04    0.80E-07
   0      9     9.524    75.026    0.59E-04    0.62E-04    0.78E-07
   1      8     9.524    16.344    0.99E-04    0.18E-03    0.87E-07
   1      8     9.524    10.160    0.78E-04    0.15E-03    0.74E-07
 Optimization of the real space projectors (new method)

 maximal supplied QI-value         = 14.36
 optimisation between [QCUT,QGAM] = [  9.48, 19.10] = [ 25.16,102.17] Ry 
 Optimized for a Real-space Cutoff    1.57 Angstroem

   l    n(q)    QCUT    max X(q) W(low)/X(q) W(high)/X(q)  e(spline) 
   2      8     9.479   134.116    0.18E-03    0.75E-03    0.26E-06
   2      8     9.479   130.192    0.18E-03    0.75E-03    0.27E-06
   0      9     9.479    60.310    0.39E-03    0.24E-03    0.63E-07
   0      9     9.479    39.218    0.36E-03    0.22E-03    0.59E-07
   1      8     9.479    18.439    0.20E-03    0.15E-03    0.16E-06
   1      8     9.479    12.760    0.16E-03    0.11E-03    0.13E-06
 Optimization of the real space projectors (new method)

 maximal supplied QI-value         = 14.36
 optimisation between [QCUT,QGAM] = [  9.48, 19.10] = [ 25.16,102.17] Ry 
 Optimized for a Real-space Cutoff    1.57 Angstroem

   l    n(q)    QCUT    max X(q) W(low)/X(q) W(high)/X(q)  e(spline) 
   2      8     9.479    66.195    0.35E-03    0.53E-04    0.87E-07
   2      8     9.479    64.643    0.35E-03    0.57E-04    0.91E-07
   0      9     9.479    95.520    0.50E-04    0.62E-04    0.81E-07
   0      9     9.479    63.403    0.49E-04    0.60E-04    0.78E-07
   1      8     9.479    19.961    0.10E-03    0.87E-04    0.11E-06
   1      8     9.479    13.289    0.88E-04    0.71E-04    0.97E-07
  PAW_PBE Au 04Oct2007                  :
 energy of atom  1       EATOM= -926.0867
 kinetic energy error for atom=    0.0152 (will be added to EATOM!!)
  PAW_PBE Ir 06Sep2000                  :
 energy of atom  2       EATOM= -560.1833
 kinetic energy error for atom=    0.0056 (will be added to EATOM!!)
  PAW_PBE Pt 04Feb2005                  :
 energy of atom  3       EATOM= -729.1176
 kinetic energy error for atom=    0.0144 (will be added to EATOM!!)
 
 
 POSCAR: Au Ir Pt                                
  positions in cartesian coordinates
  No initial velocities read in
 exchange correlation table for  LEXCH =        8
   RHO(1)=    0.500       N(1)  =     2000
   RHO(2)=  100.500       N(2)  =     4000
 


--------------------------------------------------------------------------------------------------------


 ion  position               nearest neighbor table
   1  0.500  0.500  0.631-  15 2.77  14 2.77  15 2.77  14 2.77  16 2.77  16 2.77  11 2.83  10 2.83
                            13 2.83
   2  0.500  0.000  0.373-   5 2.77   4 2.77   5 2.77   4 2.77   3 2.77   3 2.77   7 2.77   6 2.77
                             9 2.77
   3  0.000  0.000  0.373-   4 2.77   4 2.77   5 2.77   5 2.77   2 2.77   2 2.77   6 2.77   7 2.77
                             8 2.77
   4  0.000  0.500  0.373-   3 2.77   2 2.77   3 2.77   2 2.77   5 2.77   5 2.77   8 2.77   6 2.77
                             9 2.77
   5  0.500  0.500  0.373-   2 2.77   2 2.77   3 2.77   3 2.77   4 2.77   4 2.77   9 2.77   8 2.77
                             7 2.77
   6  0.167  0.167  0.458-   8 2.77   8 2.77   9 2.77   9 2.77   7 2.77   7 2.77   3 2.77   2 2.77
                             4 2.77  10 2.81  13 2.81  11 2.81
   7  0.667  0.167  0.458-   9 2.77   8 2.77   9 2.77   8 2.77   6 2.77   6 2.77   2 2.77   3 2.77
                             5 2.77  11 2.81  12 2.81  10 2.81
   8  0.167  0.667  0.458-   6 2.77   6 2.77   7 2.77   7 2.77   9 2.77   9 2.77   4 2.77   3 2.77
                             5 2.77  11 2.81  12 2.81  13 2.81
   9  0.667  0.667  0.458-   7 2.77   6 2.77   7 2.77   6 2.77   8 2.77   8 2.77   5 2.77   4 2.77
                             2 2.77  10 2.81  13 2.81  12 2.81
  10  0.833  0.333  0.544-  12 2.77  12 2.77  13 2.77  13 2.77  11 2.77  11 2.77   6 2.81   9 2.81
                             7 2.81  16 2.83  14 2.83   1 2.83
  11  0.333  0.333  0.544-  13 2.77  12 2.77  13 2.77  12 2.77  10 2.77  10 2.77   7 2.81   8 2.81
                             6 2.81   1 2.83  15 2.83  16 2.83
  12  0.833  0.833  0.544-  10 2.77  10 2.77  11 2.77  11 2.77  13 2.77  13 2.77   7 2.81   8 2.81
                             9 2.81  14 2.83  15 2.83  16 2.83
  13  0.333  0.833  0.544-  11 2.77  10 2.77  11 2.77  10 2.77  12 2.77  12 2.77   6 2.81   9 2.81
                             8 2.81  15 2.83  14 2.83   1 2.83
  14  0.000  0.000  0.631-  16 2.77   1 2.77  16 2.77   1 2.77  15 2.77  15 2.77  12 2.83  10 2.83
                            13 2.83
  15  0.500  0.000  0.631-   1 2.77   1 2.77  16 2.77  16 2.77  14 2.77  14 2.77  13 2.83  11 2.83
                            12 2.83
  16  0.000  0.500  0.631-  14 2.77  14 2.77  15 2.77  15 2.77   1 2.77   1 2.77  10 2.83  12 2.83
                            11 2.83
 
  LATTYP: Found a hexagonal cell.
 ALAT       =     5.5437171645
 C/A-ratio  =     4.8324325305
  
  Lattice vectors:
  
 A1 = (   2.7718585823,  -4.8009998959,   0.0000000000)
 A2 = (  -5.5437171645,   0.0000000000,   0.0000000000)
 A3 = (   0.0000000000,   0.0000000000, -26.7896391657)


Analysis of symmetry for initial positions (statically):
=====================================================================
 Subroutine PRICEL returns:
 Original cell was already a primitive cell.
 

 Routine SETGRP: Setting up the symmetry group for a 
 hexagonal supercell.


 Subroutine GETGRP returns: Found  2 space group operations
 (whereof  1 operations were pure point group operations)
 out of a pool of 24 trial point group operations.


The static configuration has the point symmetry C_1 .
 The point group associated with its full space group is C_1h.


Analysis of symmetry for dynamics (positions and initial velocities):
=====================================================================
 Subroutine PRICEL returns:
 Original cell was already a primitive cell.
 

 Routine SETGRP: Setting up the symmetry group for a 
 hexagonal supercell.


 Subroutine GETGRP returns: Found  2 space group operations
 (whereof  1 operations were pure point group operations)
 out of a pool of 24 trial point group operations.


The dynamic configuration has the point symmetry C_1 .
 The point group associated with its full space group is C_1h.


Analysis of constrained symmetry for selective dynamics:
=====================================================================
 Subroutine PRICEL returns:
 Original cell was already a primitive cell.
 

 Routine SETGRP: Setting up the symmetry group for a 
 hexagonal supercell.


 Subroutine GETGRP returns: Found  2 space group operations
 (whereof  1 operations were pure point group operations)
 out of a pool of 24 trial point group operations.


The constrained configuration has the point symmetry C_1 .
 The point group associated with its full space group is C_1h.


 Subroutine INISYM returns: Found  2 space group operations
 (whereof  1 operations are pure point group operations),
 and found     1 'primitive' translations

 
 
 KPOINTS: 0.2.Ir1.Au15                            

Automatic generation of k-mesh.
Space group operators:
 irot       det(A)        alpha          n_x          n_y          n_z        tau_x        tau_y        tau_z
    1     1.000000     0.000001     1.000000     0.000000     0.000000     0.000000     0.000000     0.000000
    2    -1.000000   180.000000    -0.500000    -0.866025     0.000000    -0.000000    -0.500000     0.000000
 
 Subroutine IBZKPT returns following result:
 ===========================================
 
 Found     52 irreducible k-points:
 
 Following reciprocal coordinates:
            Coordinates               Weight
  0.062500  0.062500  0.000000     32.000000
 -0.062500  0.000000  0.000000     16.000000
  0.187500  0.062500  0.000000     32.000000
  0.125000  0.187500  0.000000     32.000000
 -0.062500  0.125000  0.000000     32.000000
  0.312500  0.062500  0.000000     32.000000
  0.250000  0.312500  0.000000     32.000000
 -0.062500  0.250000  0.000000     32.000000
  0.437500  0.062500  0.000000     32.000000
  0.375000  0.437500  0.000000     32.000000
 -0.062500  0.375000  0.000000     32.000000
 -0.437500  0.062500  0.000000     32.000000
  0.500000 -0.437500  0.000000     32.000000
 -0.062500  0.500000  0.000000     32.000000
 -0.312500  0.062500  0.000000     32.000000
 -0.375000 -0.312500  0.000000     32.000000
 -0.062500 -0.375000  0.000000     32.000000
 -0.187500  0.062500  0.000000     32.000000
 -0.250000 -0.187500  0.000000     32.000000
 -0.062500 -0.250000  0.000000     32.000000
 -0.062500  0.062500  0.000000     32.000000
 -0.062500 -0.125000  0.000000     16.000000
  0.187500  0.187500  0.000000     32.000000
 -0.187500 -0.000000  0.000000     16.000000
  0.312500  0.187500  0.000000     32.000000
  0.125000  0.312500  0.000000     32.000000
 -0.187500  0.125000  0.000000     32.000000
  0.437500  0.187500  0.000000     32.000000
  0.250000  0.437500  0.000000     32.000000
 -0.187500  0.250000  0.000000     32.000000
 -0.437500  0.187500  0.000000     32.000000
  0.375000 -0.437500  0.000000     32.000000
 -0.187500  0.375000  0.000000     32.000000
 -0.312500  0.187500  0.000000     32.000000
  0.500000 -0.312500  0.000000     32.000000
 -0.187500  0.500000  0.000000     32.000000
 -0.187500  0.187500  0.000000     32.000000
 -0.187500 -0.375000  0.000000     16.000000
  0.312500  0.312500  0.000000     32.000000
 -0.312500  0.000000  0.000000     16.000000
  0.437500  0.312500  0.000000     32.000000
  0.125000  0.437500  0.000000     32.000000
 -0.312500  0.125000  0.000000     32.000000
 -0.437500  0.312500  0.000000     32.000000
  0.250000 -0.437500  0.000000     32.000000
 -0.312500  0.250000  0.000000     32.000000
 -0.312500  0.312500  0.000000     32.000000
 -0.312500  0.375000  0.000000     16.000000
  0.437500  0.437500  0.000000     32.000000
 -0.437500  0.000000  0.000000     16.000000
 -0.437500  0.437500  0.000000     32.000000
 -0.437500  0.125000  0.000000     16.000000
 
 Following cartesian coordinates:
            Coordinates               Weight
  0.011274  0.006509  0.000000     32.000000
 -0.011274  0.006509  0.000000     16.000000
  0.033822 -0.006509  0.000000     32.000000
  0.022548  0.026036  0.000000     32.000000
 -0.011274  0.032545  0.000000     32.000000
  0.056370 -0.019527  0.000000     32.000000
  0.045096  0.039054  0.000000     32.000000
 -0.011274  0.058582  0.000000     32.000000
  0.078918 -0.032545  0.000000     32.000000
  0.067644  0.052072  0.000000     32.000000
 -0.011274  0.084618  0.000000     32.000000
 -0.078918  0.058582  0.000000     32.000000
  0.090192 -0.143199  0.000000     32.000000
 -0.011274  0.110654  0.000000     32.000000
 -0.056370  0.045563  0.000000     32.000000
 -0.067644 -0.026036  0.000000     32.000000
 -0.011274 -0.071600  0.000000     32.000000
 -0.033822  0.032545  0.000000     32.000000
 -0.045096 -0.013018  0.000000     32.000000
 -0.011274 -0.045563  0.000000     32.000000
 -0.011274  0.019527  0.000000     32.000000
 -0.011274 -0.019527  0.000000     16.000000
  0.033822  0.019527  0.000000     32.000000
 -0.033822  0.019527  0.000000     16.000000
  0.056370  0.006509  0.000000     32.000000
  0.022548  0.052072  0.000000     32.000000
 -0.033822  0.045563  0.000000     32.000000
  0.078918 -0.006509  0.000000     32.000000
  0.045096  0.065091  0.000000     32.000000
 -0.033822  0.071600  0.000000     32.000000
 -0.078918  0.084618  0.000000     32.000000
  0.067644 -0.130181  0.000000     32.000000
 -0.033822  0.097636  0.000000     32.000000
 -0.056370  0.071600  0.000000     32.000000
  0.090192 -0.117163  0.000000     32.000000
 -0.033822  0.123672  0.000000     32.000000
 -0.033822  0.058582  0.000000     32.000000
 -0.033822 -0.058582  0.000000     16.000000
  0.056370  0.032545  0.000000     32.000000
 -0.056370  0.032545  0.000000     16.000000
  0.078918  0.019527  0.000000     32.000000
  0.022548  0.078109  0.000000     32.000000
 -0.056370  0.058582  0.000000     32.000000
 -0.078918  0.110654  0.000000     32.000000
  0.045096 -0.117163  0.000000     32.000000
 -0.056370  0.084618  0.000000     32.000000
 -0.056370  0.097636  0.000000     32.000000
 -0.056370  0.110654  0.000000     16.000000
  0.078918  0.045563  0.000000     32.000000
 -0.078918  0.045563  0.000000     16.000000
 -0.078918  0.136690  0.000000     32.000000
 -0.078918  0.071600  0.000000     16.000000
 


--------------------------------------------------------------------------------------------------------




 Dimension of arrays:
   k-points           NKPTS =     52   k-points in BZ     NKDIM =     52   number of bands    NBANDS=     96
   number of dos      NEDOS =    301   number of ions     NIONS =     16
   non local maximal  LDIM  =      6   non local SUM 2l+1 LMDIM =     18
   total plane-waves  NPLWV =  98784
   max r-space proj   IRMAX =   2277   max aug-charges    IRDMAX=  10217
   dimension x,y,z NGX =    28 NGY =   28 NGZ =  126
   dimension x,y,z NGXF=    56 NGYF=   56 NGZF=  252
   support grid    NGXF=    56 NGYF=   56 NGZF=  252
   ions per type =               1   1  14
   NGX,Y,Z   is equivalent  to a cutoff of   8.40,  8.40,  7.82 a.u.
   NGXF,Y,Z  is equivalent  to a cutoff of  16.79, 16.79, 15.64 a.u.

 SYSTEM =  0.2.Ir1.Au15                            
 POSCAR =  Au Ir Pt                                

 Startparameter for this run:
   NWRITE =      2    write-flag & timer
   PREC   = normal    normal or accurate (medium, high low for compatibility)
   ISTART =      0    job   : 0-new  1-cont  2-samecut
   ICHARG =      2    charge: 1-file 2-atom 10-const
   ISPIN  =      1    spin polarized calculation?
   LNONCOLLINEAR =      F non collinear calculations
   LSORBIT =      F    spin-orbit coupling
   INIWAV =      1    electr: 0-lowe 1-rand  2-diag
   LASPH  =      F    aspherical Exc in radial PAW
   METAGGA=      F    non-selfconsistent MetaGGA calc.

 Electronic Relaxation 1
   ENCUT  =  350.0 eV  25.72 Ry    5.07 a.u.   8.46  8.46 40.87*2*pi/ulx,y,z
   ENINI  =  350.0     initial cutoff
   ENAUG  =  359.0 eV  augmentation charge cutoff
   NELM   =   1000;   NELMIN=  5; NELMDL= -5     # of ELM steps 
   EDIFF  = 0.1E-04   stopping-criterion for ELM
   LREAL  =      T    real-space projection
   NLSPLINE    = F    spline interpolate recip. space projectors
   LCOMPAT=      F    compatible to vasp.4.4
   GGA_COMPAT  = T    GGA compatible to vasp.4.4-vasp.4.6
   LMAXPAW     = -100 max onsite density
   LMAXMIX     =    2 max onsite mixed and CHGCAR
   VOSKOWN=      0    Vosko Wilk Nusair interpolation
   ROPT   =   -0.00050  -0.00050  -0.00050
 Ionic relaxation
   EDIFFG = 0.1E-03   stopping-criterion for IOM
   NSW    =      0    number of steps for IOM
   NBLOCK =      1;   KBLOCK =      1    inner block; outer block 
   IBRION =     -1    ionic relax: 0-MD 1-quasi-New 2-CG
   NFREE  =      0    steps in history (QN), initial steepest desc. (CG)
   ISIF   =      2    stress and relaxation
   IWAVPR =     10    prediction:  0-non 1-charg 2-wave 3-comb
   ISYM   =      2    0-nonsym 1-usesym 2-fastsym
   LCORR  =      T    Harris-Foulkes like correction to forces

   POTIM  = 0.5000    time-step for ionic-motion
   TEIN   =    0.0    initial temperature
   TEBEG  =    0.0;   TEEND  =   0.0 temperature during run
   SMASS  =  -3.00    Nose mass-parameter (am)
   estimated Nose-frequenzy (Omega)   =  0.10E-29 period in steps =****** mass=  -0.702E-27a.u.
   SCALEE = 1.0000    scale energy and forces
   NPACO  =    256;   APACO  = 16.0  distance and # of slots for P.C.
   PSTRESS=    0.0 pullay stress

  Mass of Ions in am
   POMASS = 196.97192.22195.08
  Ionic Valenz
   ZVAL   =  11.00  9.00 10.00
  Atomic Wigner-Seitz radii
   RWIGS  =  -1.00 -1.00 -1.00
  virtual crystal weights 
   VCA    =   1.00  1.00  1.00
   NELECT =     160.0000    total number of electrons
   NUPDOWN=      -1.0000    fix difference up-down

 DOS related values:
   EMIN   =  10.00;   EMAX   =-10.00  energy-range for DOS
   EFERMI =   0.00
   ISMEAR =     1;   SIGMA  =   0.20  broadening in eV -4-tet -1-fermi 0-gaus

 Electronic relaxation 2 (details)
   IALGO  =     38    algorithm
   LDIAG  =      T    sub-space diagonalisation (order eigenvalues)
   LSUBROT=      F    optimize rotation matrix (better conditioning)
   TURBO    =      0    0=normal 1=particle mesh
   IRESTART =      0    0=no restart 2=restart with 2 vectors
   NREBOOT  =      0    no. of reboots
   NMIN     =      0    reboot dimension
   EREF     =   0.00    reference energy to select bands
   IMIX   =      4    mixing-type and parameters
     AMIX     =   0.40;   BMIX     =  1.00
     AMIX_MAG =   1.60;   BMIX_MAG =  1.00
     AMIN     =   0.10
     WC   =   100.;   INIMIX=   1;  MIXPRE=   1;  MAXMIX= -45

 Intra band minimization:
   WEIMIN = 0.0000     energy-eigenvalue tresh-hold
   EBREAK =  0.26E-07  absolut break condition
   DEPER  =   0.30     relativ break condition  

   TIME   =   0.40     timestep for ELM

  volume/ion in A,a.u.               =      44.56       300.73
  Fermi-wavevector in a.u.,A,eV,Ry     =   0.994829  1.879954 13.465469  0.989684
  Thomas-Fermi vector in A             =   2.126807
 
 Write flags
   LWAVE        =      F    write WAVECAR
   LDOWNSAMPLE  =      F    k-point downsampling of WAVECAR
   LCHARG       =      F    write CHGCAR
   LVTOT        =      F    write LOCPOT, total local potential
   LVHAR        =      F    write LOCPOT, Hartree potential only
   LELF         =      F    write electronic localiz. function (ELF)
   LORBIT       =      0    0 simple, 1 ext, 2 COOP (PROOUT), +10 PAW based schemes


 Dipole corrections
   LMONO  =      F    monopole corrections only (constant potential shift)
   LDIPOL =      F    correct potential (dipole corrections)
   IDIPOL =      3    1-x, 2-y, 3-z, 4-all directions 
   EPSILON=  1.0000000 bulk dielectric constant

 Exchange correlation treatment:
   GGA     =    --    GGA type
   LEXCH   =     8    internal setting for exchange type
   VOSKOWN=      0    Vosko Wilk Nusair interpolation
   LHFCALC =     F    Hartree Fock is set to
   LHFONE  =     F    Hartree Fock one center treatment
   AEXX    =    0.0000 exact exchange contribution

 Linear response parameters
   LEPSILON=     F    determine dielectric tensor
   LRPA    =     F    only Hartree local field effects (RPA)
   LNABLA  =     F    use nabla operator in PAW spheres
   LVEL    =     F    velocity operator in full k-point grid
   LINTERFAST=   F  fast interpolation
   KINTER  =     0    interpolate to denser k-point grid
   CSHIFT  =0.1000    complex shift for real part using Kramers Kronig
   OMEGAMAX=  -1.0    maximum frequency
   DEG_THRESHOLD= 0.2000000E-02 threshold for treating states as degnerate
   RTIME   =   -0.100 relaxation time in fs
  (WPLASMAI=    0.000 imaginary part of plasma frequency in eV, 0.658/RTIME)
   DFIELD  = 0.0000000 0.0000000 0.0000000 field for delta impulse in time
 
 Orbital magnetization related:
   ORBITALMAG=     F  switch on orbital magnetization
   LCHIMAG   =     F  perturbation theory with respect to B field
   DQ        =  0.001000  dq finite difference perturbation B field
   LLRAUG    =     F  two centre corrections for induced B field



--------------------------------------------------------------------------------------------------------


 Static calculation
 charge density and potential will be updated during run
 non-spin polarized calculation
 Variant of blocked Davidson
 Davidson routine will perform the subspace rotation
 perform sub-space diagonalisation
    after iterative eigenvector-optimisation
 modified Broyden-mixing scheme, WC =      100.0
 initial mixing is a Kerker type mixing with AMIX =  0.4000 and BMIX =      1.0000
 Hartree-type preconditioning will be used
 using additional bands           16
 real space projection scheme for non local part
 use partial core corrections
 calculate Harris-corrections to forces 
   (improved forces if not selfconsistent)
 use gradient corrections 
 use of overlap-Matrix (Vanderbilt PP)
 Methfessel and Paxton  Order N= 1 SIGMA  =   0.20


--------------------------------------------------------------------------------------------------------


  energy-cutoff  :      350.00
  volume of cell :      713.02
      direct lattice vectors                 reciprocal lattice vectors
     5.543717165  0.000000000  0.000000000     0.180384383 -0.104144972  0.000000000
     2.771858582  4.800999896  0.000000000     0.000000000  0.208289944  0.000000000
     0.000000000  0.000000000 26.789639166     0.000000000  0.000000000  0.037327864

  length of vectors
     5.543717165  5.543717165 26.789639166     0.208289944  0.208289944  0.037327864


 
 k-points in units of 2pi/SCALE and weight: 0.2.Ir1.Au15                            
   0.01127402  0.00650906  0.00000000       0.021
  -0.01127402  0.00650906  0.00000000       0.010
   0.03382207 -0.00650906  0.00000000       0.021
   0.02254805  0.02603624  0.00000000       0.021
  -0.01127402  0.03254530  0.00000000       0.021
   0.05637012 -0.01952718  0.00000000       0.021
   0.04509610  0.03905436  0.00000000       0.021
  -0.01127402  0.05858155  0.00000000       0.021
   0.07891817 -0.03254530  0.00000000       0.021
   0.06764414  0.05207249  0.00000000       0.021
  -0.01127402  0.08461779  0.00000000       0.021
  -0.07891817  0.05858155  0.00000000       0.021
   0.09019219 -0.14319934  0.00000000       0.021
  -0.01127402  0.11065403  0.00000000       0.021
  -0.05637012  0.04556343  0.00000000       0.021
  -0.06764414 -0.02603624  0.00000000       0.021
  -0.01127402 -0.07159967  0.00000000       0.021
  -0.03382207  0.03254530  0.00000000       0.021
  -0.04509610 -0.01301812  0.00000000       0.021
  -0.01127402 -0.04556343  0.00000000       0.021
  -0.01127402  0.01952718  0.00000000       0.021
  -0.01127402 -0.01952718  0.00000000       0.010
   0.03382207  0.01952718  0.00000000       0.021
  -0.03382207  0.01952718  0.00000000       0.010
   0.05637012  0.00650906  0.00000000       0.021
   0.02254805  0.05207249  0.00000000       0.021
  -0.03382207  0.04556343  0.00000000       0.021
   0.07891817 -0.00650906  0.00000000       0.021
   0.04509610  0.06509061  0.00000000       0.021
  -0.03382207  0.07159967  0.00000000       0.021
  -0.07891817  0.08461779  0.00000000       0.021
   0.06764414 -0.13018122  0.00000000       0.021
  -0.03382207  0.09763591  0.00000000       0.021
  -0.05637012  0.07159967  0.00000000       0.021
   0.09019219 -0.11716309  0.00000000       0.021
  -0.03382207  0.12367215  0.00000000       0.021
  -0.03382207  0.05858155  0.00000000       0.021
  -0.03382207 -0.05858155  0.00000000       0.010
   0.05637012  0.03254530  0.00000000       0.021
  -0.05637012  0.03254530  0.00000000       0.010
   0.07891817  0.01952718  0.00000000       0.021
   0.02254805  0.07810873  0.00000000       0.021
  -0.05637012  0.05858155  0.00000000       0.021
  -0.07891817  0.11065403  0.00000000       0.021
   0.04509610 -0.11716309  0.00000000       0.021
  -0.05637012  0.08461779  0.00000000       0.021
  -0.05637012  0.09763591  0.00000000       0.021
  -0.05637012  0.11065403  0.00000000       0.010
   0.07891817  0.04556343  0.00000000       0.021
  -0.07891817  0.04556343  0.00000000       0.010
  -0.07891817  0.13669028  0.00000000       0.021
  -0.07891817  0.07159967  0.00000000       0.010
 
 k-points in reciprocal lattice and weights: 0.2.Ir1.Au15                            
   0.06250000  0.06250000  0.00000000       0.021
  -0.06250000  0.00000000  0.00000000       0.010
   0.18750000  0.06250000  0.00000000       0.021
   0.12500000  0.18750000  0.00000000       0.021
  -0.06250000  0.12500000  0.00000000       0.021
   0.31250000  0.06250000  0.00000000       0.021
   0.25000000  0.31250000  0.00000000       0.021
  -0.06250000  0.25000000  0.00000000       0.021
   0.43750000  0.06250000  0.00000000       0.021
   0.37500000  0.43750000  0.00000000       0.021
  -0.06250000  0.37500000  0.00000000       0.021
  -0.43750000  0.06250000  0.00000000       0.021
   0.50000000 -0.43750000  0.00000000       0.021
  -0.06250000  0.50000000  0.00000000       0.021
  -0.31250000  0.06250000  0.00000000       0.021
  -0.37500000 -0.31250000  0.00000000       0.021
  -0.06250000 -0.37500000  0.00000000       0.021
  -0.18750000  0.06250000  0.00000000       0.021
  -0.25000000 -0.18750000  0.00000000       0.021
  -0.06250000 -0.25000000  0.00000000       0.021
  -0.06250000  0.06250000  0.00000000       0.021
  -0.06250000 -0.12500000  0.00000000       0.010
   0.18750000  0.18750000  0.00000000       0.021
  -0.18750000 -0.00000000  0.00000000       0.010
   0.31250000  0.18750000  0.00000000       0.021
   0.12500000  0.31250000  0.00000000       0.021
  -0.18750000  0.12500000  0.00000000       0.021
   0.43750000  0.18750000  0.00000000       0.021
   0.25000000  0.43750000  0.00000000       0.021
  -0.18750000  0.25000000  0.00000000       0.021
  -0.43750000  0.18750000  0.00000000       0.021
   0.37500000 -0.43750000  0.00000000       0.021
  -0.18750000  0.37500000  0.00000000       0.021
  -0.31250000  0.18750000  0.00000000       0.021
   0.50000000 -0.31250000  0.00000000       0.021
  -0.18750000  0.50000000  0.00000000       0.021
  -0.18750000  0.18750000  0.00000000       0.021
  -0.18750000 -0.37500000  0.00000000       0.010
   0.31250000  0.31250000  0.00000000       0.021
  -0.31250000  0.00000000  0.00000000       0.010
   0.43750000  0.31250000  0.00000000       0.021
   0.12500000  0.43750000  0.00000000       0.021
  -0.31250000  0.12500000  0.00000000       0.021
  -0.43750000  0.31250000  0.00000000       0.021
   0.25000000 -0.43750000  0.00000000       0.021
  -0.31250000  0.25000000  0.00000000       0.021
  -0.31250000  0.31250000  0.00000000       0.021
  -0.31250000  0.37500000  0.00000000       0.010
   0.43750000  0.43750000  0.00000000       0.021
  -0.43750000  0.00000000  0.00000000       0.010
  -0.43750000  0.43750000  0.00000000       0.021
  -0.43750000  0.12500000  0.00000000       0.010
 
 position of ions in fractional coordinates (direct lattice) 
   0.50000000  0.50000000  0.63112717
   0.50000000  0.00000000  0.37327864
   0.00000000  0.00000000  0.37327864
   0.00000000  0.50000000  0.37327864
   0.50000000  0.50000000  0.37327864
   0.16666667  0.16666667  0.45775955
   0.66666667  0.16666667  0.45775955
   0.16666667  0.66666667  0.45775955
   0.66666667  0.66666667  0.45775955
   0.83333333  0.33333333  0.54381573
   0.33333333  0.33333333  0.54381573
   0.83333333  0.83333333  0.54381573
   0.33333333  0.83333333  0.54381573
   0.00000000  0.00000000  0.63112717
   0.50000000  0.00000000  0.63112717
   0.00000000  0.50000000  0.63112717
 
 position of ions in cartesian coordinates  (Angst):
   4.15778787  2.40049995 16.90766902
   2.77185858  0.00000000 10.00000000
   0.00000000  0.00000000 10.00000000
   1.38592929  2.40049995 10.00000000
   4.15778787  2.40049995 10.00000000
   1.38592929  0.80016665 12.26321306
   4.15778787  0.80016665 12.26321306
   2.77185858  3.20066660 12.26321306
   5.54371716  3.20066660 12.26321306
   5.54371716  1.60033330 14.56862716
   2.77185858  1.60033330 14.56862716
   6.92964646  4.00083325 14.56862716
   4.15778787  4.00083325 14.56862716
   0.00000000  0.00000000 16.90766902
   2.77185858  0.00000000 16.90766902
   1.38592929  2.40049995 16.90766902
 


--------------------------------------------------------------------------------------------------------


 k-point  1 :   0.0625 0.0625 0.0000  plane waves:   10681
 k-point  2 :  -0.0625 0.0000 0.0000  plane waves:   10681
 k-point  3 :   0.1875 0.0625 0.0000  plane waves:   10654
 k-point  4 :   0.1250 0.1875 0.0000  plane waves:   10654
 k-point  5 :  -0.0625 0.1250 0.0000  plane waves:   10654
 k-point  6 :   0.3125 0.0625 0.0000  plane waves:   10616
 k-point  7 :   0.2500 0.3125 0.0000  plane waves:   10616
 k-point  8 :  -0.0625 0.2500 0.0000  plane waves:   10616
 k-point  9 :   0.4375 0.0625 0.0000  plane waves:   10577
 k-point 10 :   0.3750 0.4375 0.0000  plane waves:   10577
 k-point 11 :  -0.0625 0.3750 0.0000  plane waves:   10577
 k-point 12 :  -0.4375 0.0625 0.0000  plane waves:   10551
 k-point 13 :   0.5000-0.4375 0.0000  plane waves:   10551
 k-point 14 :  -0.0625 0.5000 0.0000  plane waves:   10551
 k-point 15 :  -0.3125 0.0625 0.0000  plane waves:   10587
 k-point 16 :  -0.3750-0.3125 0.0000  plane waves:   10587
 k-point 17 :  -0.0625-0.3750 0.0000  plane waves:   10587
 k-point 18 :  -0.1875 0.0625 0.0000  plane waves:   10616
 k-point 19 :  -0.2500-0.1875 0.0000  plane waves:   10616
 k-point 20 :  -0.0625-0.2500 0.0000  plane waves:   10616
 k-point 21 :  -0.0625 0.0625 0.0000  plane waves:   10677
 k-point 22 :  -0.0625-0.1250 0.0000  plane waves:   10677
 k-point 23 :   0.1875 0.1875 0.0000  plane waves:   10631
 k-point 24 :  -0.1875-0.0000 0.0000  plane waves:   10631
 k-point 25 :   0.3125 0.1875 0.0000  plane waves:   10620
 k-point 26 :   0.1250 0.3125 0.0000  plane waves:   10620
 k-point 27 :  -0.1875 0.1250 0.0000  plane waves:   10620
 k-point 28 :   0.4375 0.1875 0.0000  plane waves:   10599
 k-point 29 :   0.2500 0.4375 0.0000  plane waves:   10599
 k-point 30 :  -0.1875 0.2500 0.0000  plane waves:   10599
 k-point 31 :  -0.4375 0.1875 0.0000  plane waves:   10577
 k-point 32 :   0.3750-0.4375 0.0000  plane waves:   10577
 k-point 33 :  -0.1875 0.3750 0.0000  plane waves:   10577
 k-point 34 :  -0.3125 0.1875 0.0000  plane waves:   10577
 k-point 35 :   0.5000-0.3125 0.0000  plane waves:   10577
 k-point 36 :  -0.1875 0.5000 0.0000  plane waves:   10577
 k-point 37 :  -0.1875 0.1875 0.0000  plane waves:   10613
 k-point 38 :  -0.1875-0.3750 0.0000  plane waves:   10613
 k-point 39 :   0.3125 0.3125 0.0000  plane waves:   10603
 k-point 40 :  -0.3125 0.0000 0.0000  plane waves:   10603
 k-point 41 :   0.4375 0.3125 0.0000  plane waves:   10605
 k-point 42 :   0.1250 0.4375 0.0000  plane waves:   10605
 k-point 43 :  -0.3125 0.1250 0.0000  plane waves:   10605
 k-point 44 :  -0.4375 0.3125 0.0000  plane waves:   10593
 k-point 45 :   0.2500-0.4375 0.0000  plane waves:   10593
 k-point 46 :  -0.3125 0.2500 0.0000  plane waves:   10593
 k-point 47 :  -0.3125 0.3125 0.0000  plane waves:   10592
 k-point 48 :  -0.3125 0.3750 0.0000  plane waves:   10592
 k-point 49 :   0.4375 0.4375 0.0000  plane waves:   10562
 k-point 50 :  -0.4375 0.0000 0.0000  plane waves:   10562
 k-point 51 :  -0.4375 0.4375 0.0000  plane waves:   10550
 k-point 52 :  -0.4375 0.1250 0.0000  plane waves:   10550

 maximum and minimum number of plane-waves per node :      2695     2607

 maximum number of plane-waves:     10681
 maximum index in each direction: 
   IXMAX=    8   IYMAX=    8   IZMAX=   40
   IXMIN=   -8   IYMIN=   -8   IZMIN=  -40


 real space projection operators:
  total allocation   :       4856.06 KBytes
  max/ min on nodes  :       1216.41       1211.62


 parallel 3D FFT for wavefunctions:
    minimum data exchange during FFTs selected (reduces bandwidth)
 parallel 3D FFT for charge:
    minimum data exchange during FFTs selected (reduces bandwidth)


 total amount of memory used by VASP MPI-rank0    94502. kBytes
=======================================================================

   base      :      30000. kBytes
   nonlr-proj:       2110. kBytes
   fftplans  :       2594. kBytes
   grid      :       4625. kBytes
   one-center:         62. kBytes
   wavefun   :      55111. kBytes
 
     INWAV:  cpu time    0.0000: real time    0.0000
 Broyden mixing: mesh for mixing (old mesh)
   NGX = 17   NGY = 17   NGZ = 81
  (NGX  = 56   NGY  = 56   NGZ  =252)
  gives a total of  23409 points

 initial charge density was supplied:
 charge density of overlapping atoms calculated
 number of electron     160.0000000 magnetization 
 keeping initial charge density in first step


--------------------------------------------------------------------------------------------------------


 Maximum index for non-local projection operator          548
 Maximum index for augmentation-charges          730 (set IRDMAX)


--------------------------------------------------------------------------------------------------------


 First call to EWALD:  gamma=   0.198
 Maximum number of real-space cells 5x 5x 1
 Maximum number of reciprocal cells 2x 2x 7

    FEWALD:  cpu time    0.0013: real time    0.0013


--------------------------------------- Iteration      1(   1)  ---------------------------------------


    POTLOK:  cpu time    0.0218: real time    0.0273
    SETDIJ:  cpu time    0.0025: real time    0.0025
     EDDAV:  cpu time    6.0696: real time    6.0700
       DOS:  cpu time    0.0043: real time    0.0043
    --------------------------------------------
      LOOP:  cpu time    6.0982: real time    6.1040

 eigenvalue-minimisations  : 10024
 total energy-change (2. order) : 0.9778856E+03  (-0.5661681E+04)
 number of electron     160.0000000 magnetization 
 augmentation part      160.0000000 magnetization 

 Free energy of the ion-electron system (eV)
  ---------------------------------------------------
  alpha Z        PSCENC =       350.82459594
  Ewald energy   TEWEN  =     72997.72182899
  -Hartree energ DENC   =    -85232.38465989
  -exchange      EXHF   =         0.00000000
  -V(xc)+E(xc)   XCENC  =        46.84694246
  PAW double counting   =     11171.21661038   -10711.84633960
  entropy T*S    EENTRO =         0.01217122
  eigenvalues    EBANDS =       661.80023378
  atomic energy  EATOM  =     11693.69420960
  Solvation  Ediel_sol  =         0.00000000
  ---------------------------------------------------
  free energy    TOTEN  =       977.88559287 eV

  energy without entropy =      977.87342165  energy(sigma->0) =      977.88153580


--------------------------------------------------------------------------------------------------------




--------------------------------------- Iteration      1(   2)  ---------------------------------------


     EDDAV:  cpu time    7.0624: real time    7.0634
       DOS:  cpu time    0.0051: real time    0.0051
    --------------------------------------------
      LOOP:  cpu time    7.0675: real time    7.0685

 eigenvalue-minimisations  : 12280
 total energy-change (2. order) :-0.9960341E+03  (-0.9151710E+03)
 number of electron     160.0000000 magnetization 
 augmentation part      160.0000000 magnetization 

 Free energy of the ion-electron system (eV)
  ---------------------------------------------------
  alpha Z        PSCENC =       350.82459594
  Ewald energy   TEWEN  =     72997.72182899
  -Hartree energ DENC   =    -85232.38465989
  -exchange      EXHF   =         0.00000000
  -V(xc)+E(xc)   XCENC  =        46.84694246
  PAW double counting   =     11171.21661038   -10711.84633960
  entropy T*S    EENTRO =        -0.00652648
  eigenvalues    EBANDS =      -334.21514174
  atomic energy  EATOM  =     11693.69420960
  Solvation  Ediel_sol  =         0.00000000
  ---------------------------------------------------
  free energy    TOTEN  =       -18.14848035 eV

  energy without entropy =      -18.14195387  energy(sigma->0) =      -18.14630485


--------------------------------------------------------------------------------------------------------




--------------------------------------- Iteration      1(   3)  ---------------------------------------


     EDDAV:  cpu time    6.8744: real time    6.8751
       DOS:  cpu time    0.0056: real time    0.0056
    --------------------------------------------
      LOOP:  cpu time    6.8799: real time    6.8807

 eigenvalue-minimisations  : 11888
 total energy-change (2. order) :-0.7683462E+02  (-0.6932638E+02)
 number of electron     160.0000000 magnetization 
 augmentation part      160.0000000 magnetization 

 Free energy of the ion-electron system (eV)
  ---------------------------------------------------
  alpha Z        PSCENC =       350.82459594
  Ewald energy   TEWEN  =     72997.72182899
  -Hartree energ DENC   =    -85232.38465989
  -exchange      EXHF   =         0.00000000
  -V(xc)+E(xc)   XCENC  =        46.84694246
  PAW double counting   =     11171.21661038   -10711.84633960
  entropy T*S    EENTRO =        -0.02277358
  eigenvalues    EBANDS =      -411.03351102
  atomic energy  EATOM  =     11693.69420960
  Solvation  Ediel_sol  =         0.00000000
  ---------------------------------------------------
  free energy    TOTEN  =       -94.98309673 eV

  energy without entropy =      -94.96032314  energy(sigma->0) =      -94.97550553


--------------------------------------------------------------------------------------------------------




--------------------------------------- Iteration      1(   4)  ---------------------------------------


     EDDAV:  cpu time    7.6727: real time    7.6739
       DOS:  cpu time    0.0055: real time    0.0055
    --------------------------------------------
      LOOP:  cpu time    7.6782: real time    7.6794

 eigenvalue-minimisations  : 13672
 total energy-change (2. order) :-0.3269205E+01  (-0.3123174E+01)
 number of electron     160.0000000 magnetization 
 augmentation part      160.0000000 magnetization 

 Free energy of the ion-electron system (eV)
  ---------------------------------------------------
  alpha Z        PSCENC =       350.82459594
  Ewald energy   TEWEN  =     72997.72182899
  -Hartree energ DENC   =    -85232.38465989
  -exchange      EXHF   =         0.00000000
  -V(xc)+E(xc)   XCENC  =        46.84694246
  PAW double counting   =     11171.21661038   -10711.84633960
  entropy T*S    EENTRO =        -0.02358153
  eigenvalues    EBANDS =      -414.30190762
  atomic energy  EATOM  =     11693.69420960
  Solvation  Ediel_sol  =         0.00000000
  ---------------------------------------------------
  free energy    TOTEN  =       -98.25230128 eV

  energy without entropy =      -98.22871975  energy(sigma->0) =      -98.24444077


--------------------------------------------------------------------------------------------------------




--------------------------------------- Iteration      1(   5)  ---------------------------------------


     EDDAV:  cpu time    7.3001: real time    7.3025
       DOS:  cpu time    0.0056: real time    0.0056
    CHARGE:  cpu time    0.3384: real time    0.3384
    MIXING:  cpu time    0.0011: real time    0.0011
    --------------------------------------------
      LOOP:  cpu time    7.6451: real time    7.6475

 eigenvalue-minimisations  : 12840
 total energy-change (2. order) :-0.8246352E-01  (-0.8215190E-01)
 number of electron     160.0000135 magnetization 
 augmentation part       46.9722309 magnetization 

 Broyden mixing:
  rms(total) = 0.42931E+01    rms(broyden)= 0.42930E+01
  rms(prec ) = 0.43303E+01
  weight for this iteration     100.00

 Free energy of the ion-electron system (eV)
  ---------------------------------------------------
  alpha Z        PSCENC =       350.82459594
  Ewald energy   TEWEN  =     72997.72182899
  -Hartree energ DENC   =    -85232.38465989
  -exchange      EXHF   =         0.00000000
  -V(xc)+E(xc)   XCENC  =        46.84694246
  PAW double counting   =     11171.21661038   -10711.84633960
  entropy T*S    EENTRO =        -0.02326831
  eigenvalues    EBANDS =      -414.38468436
  atomic energy  EATOM  =     11693.69420960
  Solvation  Ediel_sol  =         0.00000000
  ---------------------------------------------------
  free energy    TOTEN  =       -98.33476480 eV

  energy without entropy =      -98.31149649  energy(sigma->0) =      -98.32700870


--------------------------------------------------------------------------------------------------------




--------------------------------------- Iteration      1(   6)  ---------------------------------------


    POTLOK:  cpu time    0.0196: real time    0.0197
    SETDIJ:  cpu time    0.0024: real time    0.0024
     EDDAV:  cpu time    6.6299: real time    6.6300
       DOS:  cpu time    0.0056: real time    0.0056
    CHARGE:  cpu time    0.3419: real time    0.3419
    MIXING:  cpu time    0.0010: real time    0.0010
    --------------------------------------------
      LOOP:  cpu time    7.0003: real time    7.0006

 eigenvalue-minimisations  : 11360
 total energy-change (2. order) : 0.3574784E+01  (-0.1984606E+01)
 number of electron     160.0000123 magnetization 
 augmentation part       49.4898128 magnetization 

 Broyden mixing:
  rms(total) = 0.32429E+01    rms(broyden)= 0.32429E+01
  rms(prec ) = 0.35019E+01
  weight for this iteration     100.00

 eigenvalues of (default mixing * dielectric matrix)
  average eigenvalue GAMMA=   1.1963
  1.1963

 Free energy of the ion-electron system (eV)
  ---------------------------------------------------
  alpha Z        PSCENC =       350.82459594
  Ewald energy   TEWEN  =     72997.72182899
  -Hartree energ DENC   =    -85051.42973579
  -exchange      EXHF   =         0.00000000
  -V(xc)+E(xc)   XCENC  =        42.71957395
  PAW double counting   =     12376.13271295   -11940.35492516
  entropy T*S    EENTRO =        -0.02144177
  eigenvalues    EBANDS =      -564.04679924
  atomic energy  EATOM  =     11693.69420960
  Solvation  Ediel_sol  =         0.00000000
  ---------------------------------------------------
  free energy    TOTEN  =       -94.75998054 eV

  energy without entropy =      -94.73853877  energy(sigma->0) =      -94.75283328


--------------------------------------------------------------------------------------------------------




--------------------------------------- Iteration      1(   7)  ---------------------------------------


    POTLOK:  cpu time    0.0178: real time    0.0178
    SETDIJ:  cpu time    0.0023: real time    0.0023
     EDDAV:  cpu time    8.3718: real time    8.3719
       DOS:  cpu time    0.0054: real time    0.0054
    CHARGE:  cpu time    0.3411: real time    0.3411
    MIXING:  cpu time    0.0010: real time    0.0010
    --------------------------------------------
      LOOP:  cpu time    8.7394: real time    8.7396

 eigenvalue-minimisations  : 15208
 total energy-change (2. order) :-0.4322316E+02  (-0.1267838E+02)
 number of electron     160.0000148 magnetization 
 augmentation part       47.7656106 magnetization 

 Broyden mixing:
  rms(total) = 0.55075E+01    rms(broyden)= 0.55074E+01
  rms(prec ) = 0.70289E+01
  weight for this iteration     100.00

 eigenvalues of (default mixing * dielectric matrix)
  average eigenvalue GAMMA=   1.0227
  1.8616  0.1839

 Free energy of the ion-electron system (eV)
  ---------------------------------------------------
  alpha Z        PSCENC =       350.82459594
  Ewald energy   TEWEN  =     72997.72182899
  -Hartree energ DENC   =    -85155.66120516
  -exchange      EXHF   =         0.00000000
  -V(xc)+E(xc)   XCENC  =        41.64944005
  PAW double counting   =     13087.86122726   -12660.78439011
  entropy T*S    EENTRO =        -0.02294952
  eigenvalues    EBANDS =      -493.26589308
  atomic energy  EATOM  =     11693.69420960
  Solvation  Ediel_sol  =         0.00000000
  ---------------------------------------------------
  free energy    TOTEN  =      -137.98313602 eV

  energy without entropy =     -137.96018650  energy(sigma->0) =     -137.97548618


--------------------------------------------------------------------------------------------------------




--------------------------------------- Iteration      1(   8)  ---------------------------------------


    POTLOK:  cpu time    0.0186: real time    0.0188
    SETDIJ:  cpu time    0.0023: real time    0.0023
     EDDAV:  cpu time    7.9911: real time    7.9914
       DOS:  cpu time    0.0057: real time    0.0057
    CHARGE:  cpu time    0.3396: real time    0.3396
    MIXING:  cpu time    0.0012: real time    0.0012
    --------------------------------------------
      LOOP:  cpu time    8.3585: real time    8.3590

 eigenvalue-minimisations  : 14328
 total energy-change (2. order) : 0.1944690E+02  (-0.4999698E+01)
 number of electron     160.0000165 magnetization 
 augmentation part       49.1795836 magnetization 

 Broyden mixing:
  rms(total) = 0.43255E+01    rms(broyden)= 0.43254E+01
  rms(prec ) = 0.49854E+01
  weight for this iteration     100.00

 eigenvalues of (default mixing * dielectric matrix)
  average eigenvalue GAMMA=   0.8787
  2.1769  0.2296  0.2296

 Free energy of the ion-electron system (eV)
  ---------------------------------------------------
  alpha Z        PSCENC =       350.82459594
  Ewald energy   TEWEN  =     72997.72182899
  -Hartree energ DENC   =    -85160.35256462
  -exchange      EXHF   =         0.00000000
  -V(xc)+E(xc)   XCENC  =        40.60890799
  PAW double counting   =     13879.93456668   -13463.30733908
  entropy T*S    EENTRO =        -0.00055599
  eigenvalues    EBANDS =      -457.65988259
  atomic energy  EATOM  =     11693.69420960
  Solvation  Ediel_sol  =         0.00000000
  ---------------------------------------------------
  free energy    TOTEN  =      -118.53623307 eV

  energy without entropy =     -118.53567709  energy(sigma->0) =     -118.53604775


--------------------------------------------------------------------------------------------------------




--------------------------------------- Iteration      1(   9)  ---------------------------------------


    POTLOK:  cpu time    0.0189: real time    0.0195
    SETDIJ:  cpu time    0.0023: real time    0.0023
     EDDAV:  cpu time    8.9211: real time    8.9213
       DOS:  cpu time    0.0056: real time    0.0056
    CHARGE:  cpu time    0.3383: real time    0.3383
    MIXING:  cpu time    0.0010: real time    0.0010
    --------------------------------------------
      LOOP:  cpu time    9.2871: real time    9.2880

 eigenvalue-minimisations  : 16400
 total energy-change (2. order) : 0.1111994E+02  (-0.4383781E+01)
 number of electron     160.0000148 magnetization 
 augmentation part       50.0204767 magnetization 

 Broyden mixing:
  rms(total) = 0.29470E+01    rms(broyden)= 0.29469E+01
  rms(prec ) = 0.40456E+01
  weight for this iteration     100.00

 eigenvalues of (default mixing * dielectric matrix)
  average eigenvalue GAMMA=   0.8371
  2.1669  0.6687  0.3555  0.1572

 Free energy of the ion-electron system (eV)
  ---------------------------------------------------
  alpha Z        PSCENC =       350.82459594
  Ewald energy   TEWEN  =     72997.72182899
  -Hartree energ DENC   =    -85026.25092199
  -exchange      EXHF   =         0.00000000
  -V(xc)+E(xc)   XCENC  =        40.15941044
  PAW double counting   =     14333.92234438   -13922.91776561
  entropy T*S    EENTRO =        -0.01235846
  eigenvalues    EBANDS =      -574.55763978
  atomic energy  EATOM  =     11693.69420960
  Solvation  Ediel_sol  =         0.00000000
  ---------------------------------------------------
  free energy    TOTEN  =      -107.41629649 eV

  energy without entropy =     -107.40393803  energy(sigma->0) =     -107.41217700


--------------------------------------------------------------------------------------------------------




--------------------------------------- Iteration      1(  10)  ---------------------------------------


    POTLOK:  cpu time    0.0178: real time    0.0203
    SETDIJ:  cpu time    0.0023: real time    0.0023
     EDDAV:  cpu time    7.5010: real time    7.5013
       DOS:  cpu time    0.0057: real time    0.0057
    CHARGE:  cpu time    0.3464: real time    0.3464
    MIXING:  cpu time    0.0010: real time    0.0010
    --------------------------------------------
      LOOP:  cpu time    7.8743: real time    7.8770

 eigenvalue-minimisations  : 13320
 total energy-change (2. order) : 0.1376384E+02  (-0.2498335E+01)
 number of electron     160.0000148 magnetization 
 augmentation part       50.3487760 magnetization 

 Broyden mixing:
  rms(total) = 0.12865E+01    rms(broyden)= 0.12864E+01
  rms(prec ) = 0.14733E+01
  weight for this iteration     100.00

 eigenvalues of (default mixing * dielectric matrix)
  average eigenvalue GAMMA=   0.7275
  2.0999  0.5485  0.5485  0.2821  0.1586

 Free energy of the ion-electron system (eV)
  ---------------------------------------------------
  alpha Z        PSCENC =       350.82459594
  Ewald energy   TEWEN  =     72997.72182899
  -Hartree energ DENC   =    -85052.02497561
  -exchange      EXHF   =         0.00000000
  -V(xc)+E(xc)   XCENC  =        40.87998678
  PAW double counting   =     14505.09732650   -14092.38535870
  entropy T*S    EENTRO =        -0.02338058
  eigenvalues    EBANDS =      -537.43668509
  atomic energy  EATOM  =     11693.69420960
  Solvation  Ediel_sol  =         0.00000000
  ---------------------------------------------------
  free energy    TOTEN  =       -93.65245216 eV

  energy without entropy =      -93.62907158  energy(sigma->0) =      -93.64465864


--------------------------------------------------------------------------------------------------------




--------------------------------------- Iteration      1(  11)  ---------------------------------------


    POTLOK:  cpu time    0.0178: real time    0.0178
    SETDIJ:  cpu time    0.0023: real time    0.0023
     EDDAV:  cpu time    8.1289: real time    8.1292
       DOS:  cpu time    0.0056: real time    0.0056
    CHARGE:  cpu time    0.3553: real time    0.3553
    MIXING:  cpu time    0.0011: real time    0.0011
    --------------------------------------------
      LOOP:  cpu time    8.5111: real time    8.5114

 eigenvalue-minimisations  : 14688
 total energy-change (2. order) : 0.1371506E+01  (-0.9595902E+00)
 number of electron     160.0000137 magnetization 
 augmentation part       50.1749023 magnetization 

 Broyden mixing:
  rms(total) = 0.74175E+00    rms(broyden)= 0.74156E+00
  rms(prec ) = 0.79586E+00
  weight for this iteration     100.00

 eigenvalues of (default mixing * dielectric matrix)
  average eigenvalue GAMMA=   0.7095
  2.0816  0.6875  0.6875  0.4119  0.1617  0.2268

 Free energy of the ion-electron system (eV)
  ---------------------------------------------------
  alpha Z        PSCENC =       350.82459594
  Ewald energy   TEWEN  =     72997.72182899
  -Hartree energ DENC   =    -85046.71157106
  -exchange      EXHF   =         0.00000000
  -V(xc)+E(xc)   XCENC  =        40.91635731
  PAW double counting   =     14508.58813728   -14095.26795895
  entropy T*S    EENTRO =        -0.01879031
  eigenvalues    EBANDS =      -542.02775537
  atomic energy  EATOM  =     11693.69420960
  Solvation  Ediel_sol  =         0.00000000
  ---------------------------------------------------
  free energy    TOTEN  =       -92.28094657 eV

  energy without entropy =      -92.26215626  energy(sigma->0) =      -92.27468313


--------------------------------------------------------------------------------------------------------




--------------------------------------- Iteration      1(  12)  ---------------------------------------


    POTLOK:  cpu time    0.0191: real time    0.0207
    SETDIJ:  cpu time    0.0023: real time    0.0023
     EDDAV:  cpu time    6.9802: real time    6.9804
       DOS:  cpu time    0.0058: real time    0.0058
    CHARGE:  cpu time    0.3648: real time    0.3648
    MIXING:  cpu time    0.0014: real time    0.0014
    --------------------------------------------
      LOOP:  cpu time    7.3737: real time    7.3755

 eigenvalue-minimisations  : 12120
 total energy-change (2. order) : 0.5565190E-01  (-0.8748026E-01)
 number of electron     160.0000137 magnetization 
 augmentation part       50.1537962 magnetization 

 Broyden mixing:
  rms(total) = 0.55569E+00    rms(broyden)= 0.55568E+00
  rms(prec ) = 0.67205E+00
  weight for this iteration     100.00

 eigenvalues of (default mixing * dielectric matrix)
  average eigenvalue GAMMA=   0.7120
  2.0757  0.6902  0.6902  0.7836  0.1600  0.3313  0.2528

 Free energy of the ion-electron system (eV)
  ---------------------------------------------------
  alpha Z        PSCENC =       350.82459594
  Ewald energy   TEWEN  =     72997.72182899
  -Hartree energ DENC   =    -85043.94490555
  -exchange      EXHF   =         0.00000000
  -V(xc)+E(xc)   XCENC  =        40.96872291
  PAW double counting   =     14495.25977758   -14081.89663722
  entropy T*S    EENTRO =        -0.03366706
  eigenvalues    EBANDS =      -544.81921987
  atomic energy  EATOM  =     11693.69420960
  Solvation  Ediel_sol  =         0.00000000
  ---------------------------------------------------
  free energy    TOTEN  =       -92.22529467 eV

  energy without entropy =      -92.19162761  energy(sigma->0) =      -92.21407231


--------------------------------------------------------------------------------------------------------




--------------------------------------- Iteration      1(  13)  ---------------------------------------


    POTLOK:  cpu time    0.0194: real time    0.0203
    SETDIJ:  cpu time    0.0023: real time    0.0023
     EDDAV:  cpu time    6.9724: real time    6.9726
       DOS:  cpu time    0.0058: real time    0.0058
    CHARGE:  cpu time    0.3536: real time    0.3536
    MIXING:  cpu time    0.0012: real time    0.0012
    --------------------------------------------
      LOOP:  cpu time    7.3546: real time    7.3557

 eigenvalue-minimisations  : 12144
 total energy-change (2. order) : 0.6206620E-01  (-0.8737776E-01)
 number of electron     160.0000139 magnetization 
 augmentation part       50.1502911 magnetization 

 Broyden mixing:
  rms(total) = 0.39968E+00    rms(broyden)= 0.39965E+00
  rms(prec ) = 0.44536E+00
  weight for this iteration     100.00

 eigenvalues of (default mixing * dielectric matrix)
  average eigenvalue GAMMA=   0.7389
  2.0197  1.0632  1.0632  0.6107  0.4723  0.1598  0.2718  0.2502

 Free energy of the ion-electron system (eV)
  ---------------------------------------------------
  alpha Z        PSCENC =       350.82459594
  Ewald energy   TEWEN  =     72997.72182899
  -Hartree energ DENC   =    -85043.70606459
  -exchange      EXHF   =         0.00000000
  -V(xc)+E(xc)   XCENC  =        40.97419390
  PAW double counting   =     14457.39287056   -14044.11930912
  entropy T*S    EENTRO =        -0.02695189
  eigenvalues    EBANDS =      -544.91860186
  atomic energy  EATOM  =     11693.69420960
  Solvation  Ediel_sol  =         0.00000000
  ---------------------------------------------------
  free energy    TOTEN  =       -92.16322847 eV

  energy without entropy =      -92.13627658  energy(sigma->0) =      -92.15424451


--------------------------------------------------------------------------------------------------------




--------------------------------------- Iteration      1(  14)  ---------------------------------------


    POTLOK:  cpu time    0.0180: real time    0.0180
    SETDIJ:  cpu time    0.0023: real time    0.0023
     EDDAV:  cpu time    7.4924: real time    7.4926
       DOS:  cpu time    0.0058: real time    0.0058
    CHARGE:  cpu time    0.3516: real time    0.3516
    MIXING:  cpu time    0.0013: real time    0.0013
    --------------------------------------------
      LOOP:  cpu time    7.8714: real time    7.8715

 eigenvalue-minimisations  : 13288
 total energy-change (2. order) :-0.1651586E-01  (-0.1664436E-01)
 number of electron     160.0000140 magnetization 
 augmentation part       50.1183777 magnetization 

 Broyden mixing:
  rms(total) = 0.37331E+00    rms(broyden)= 0.37330E+00
  rms(prec ) = 0.49780E+00
  weight for this iteration     100.00

 eigenvalues of (default mixing * dielectric matrix)
  average eigenvalue GAMMA=   0.7460
  1.9887  1.3011  1.3011  0.5247  0.5247  0.1600  0.2488  0.3533  0.3116

 Free energy of the ion-electron system (eV)
  ---------------------------------------------------
  alpha Z        PSCENC =       350.82459594
  Ewald energy   TEWEN  =     72997.72182899
  -Hartree energ DENC   =    -85045.99442924
  -exchange      EXHF   =         0.00000000
  -V(xc)+E(xc)   XCENC  =        41.03169357
  PAW double counting   =     14382.84808740   -13969.30802889
  entropy T*S    EENTRO =        -0.03502075
  eigenvalues    EBANDS =      -542.96268095
  atomic energy  EATOM  =     11693.69420960
  Solvation  Ediel_sol  =         0.00000000
  ---------------------------------------------------
  free energy    TOTEN  =       -92.17974433 eV

  energy without entropy =      -92.14472358  energy(sigma->0) =      -92.16807074


--------------------------------------------------------------------------------------------------------




--------------------------------------- Iteration      1(  15)  ---------------------------------------


    POTLOK:  cpu time    0.0182: real time    0.0182
    SETDIJ:  cpu time    0.0024: real time    0.0024
     EDDAV:  cpu time    7.8139: real time    7.8141
       DOS:  cpu time    0.0056: real time    0.0056
    CHARGE:  cpu time    0.3555: real time    0.3555
    MIXING:  cpu time    0.0013: real time    0.0013
    --------------------------------------------
      LOOP:  cpu time    8.1968: real time    8.1970

 eigenvalue-minimisations  : 14008
 total energy-change (2. order) : 0.8759710E-01  (-0.1356720E-01)
 number of electron     160.0000138 magnetization 
 augmentation part       50.1027435 magnetization 

 Broyden mixing:
  rms(total) = 0.17188E+00    rms(broyden)= 0.17186E+00
  rms(prec ) = 0.19359E+00
  weight for this iteration     100.00

 eigenvalues of (default mixing * dielectric matrix)
  average eigenvalue GAMMA=   0.8523
  2.3378  1.6293  1.6293  0.6067  0.6067  0.6614  0.1600  0.3441  0.2480  0.3002

 Free energy of the ion-electron system (eV)
  ---------------------------------------------------
  alpha Z        PSCENC =       350.82459594
  Ewald energy   TEWEN  =     72997.72182899
  -Hartree energ DENC   =    -85048.43566639
  -exchange      EXHF   =         0.00000000
  -V(xc)+E(xc)   XCENC  =        41.09233741
  PAW double counting   =     14339.25594645   -13925.48968070
  entropy T*S    EENTRO =        -0.03600962
  eigenvalues    EBANDS =      -540.71970891
  atomic energy  EATOM  =     11693.69420960
  Solvation  Ediel_sol  =         0.00000000
  ---------------------------------------------------
  free energy    TOTEN  =       -92.09214723 eV

  energy without entropy =      -92.05613761  energy(sigma->0) =      -92.08014402


--------------------------------------------------------------------------------------------------------




--------------------------------------- Iteration      1(  16)  ---------------------------------------


    POTLOK:  cpu time    0.0184: real time    0.0184
    SETDIJ:  cpu time    0.0023: real time    0.0023
     EDDAV:  cpu time    6.8509: real time    6.8511
       DOS:  cpu time    0.0056: real time    0.0056
    CHARGE:  cpu time    0.3518: real time    0.3518
    MIXING:  cpu time    0.0015: real time    0.0015
    --------------------------------------------
      LOOP:  cpu time    7.2305: real time    7.2308

 eigenvalue-minimisations  : 11872
 total energy-change (2. order) : 0.1896260E-02  (-0.8292656E-02)
 number of electron     160.0000138 magnetization 
 augmentation part       50.0697964 magnetization 

 Broyden mixing:
  rms(total) = 0.10642E+00    rms(broyden)= 0.10641E+00
  rms(prec ) = 0.11836E+00
  weight for this iteration     100.00

 eigenvalues of (default mixing * dielectric matrix)
  average eigenvalue GAMMA=   0.8035
  1.9685  1.9685  1.5144  0.7232  0.6135  0.6135  0.4380  0.1600  0.2477  0.2956
  0.2956

 Free energy of the ion-electron system (eV)
  ---------------------------------------------------
  alpha Z        PSCENC =       350.82459594
  Ewald energy   TEWEN  =     72997.72182899
  -Hartree energ DENC   =    -85055.21618137
  -exchange      EXHF   =         0.00000000
  -V(xc)+E(xc)   XCENC  =        41.14588720
  PAW double counting   =     14289.19233293   -13875.35880630
  entropy T*S    EENTRO =        -0.04085986
  eigenvalues    EBANDS =      -534.05325810
  atomic energy  EATOM  =     11693.69420960
  Solvation  Ediel_sol  =         0.00000000
  ---------------------------------------------------
  free energy    TOTEN  =       -92.09025097 eV

  energy without entropy =      -92.04939111  energy(sigma->0) =      -92.07663101


--------------------------------------------------------------------------------------------------------




--------------------------------------- Iteration      1(  17)  ---------------------------------------


    POTLOK:  cpu time    0.0189: real time    0.0201
    SETDIJ:  cpu time    0.0023: real time    0.0023
     EDDAV:  cpu time    6.7012: real time    6.7014
       DOS:  cpu time    0.0054: real time    0.0054
    CHARGE:  cpu time    0.3520: real time    0.3520
    MIXING:  cpu time    0.0016: real time    0.0016
    --------------------------------------------
      LOOP:  cpu time    7.0813: real time    7.0826

 eigenvalue-minimisations  : 11544
 total energy-change (2. order) : 0.9116680E-02  (-0.2694927E-02)
 number of electron     160.0000138 magnetization 
 augmentation part       50.0588349 magnetization 

 Broyden mixing:
  rms(total) = 0.52703E-01    rms(broyden)= 0.52696E-01
  rms(prec ) = 0.57727E-01
  weight for this iteration     100.00

 eigenvalues of (default mixing * dielectric matrix)
  average eigenvalue GAMMA=   0.7857
  2.0519  2.0519  1.3963  0.7062  0.7062  0.5979  0.5979  0.1600  0.2475  0.3176
  0.3176  0.2782

 Free energy of the ion-electron system (eV)
  ---------------------------------------------------
  alpha Z        PSCENC =       350.82459594
  Ewald energy   TEWEN  =     72997.72182899
  -Hartree energ DENC   =    -85056.48903700
  -exchange      EXHF   =         0.00000000
  -V(xc)+E(xc)   XCENC  =        41.16386636
  PAW double counting   =     14285.49914995   -13871.55312236
  entropy T*S    EENTRO =        -0.03701346
  eigenvalues    EBANDS =      -532.90561231
  atomic energy  EATOM  =     11693.69420960
  Solvation  Ediel_sol  =         0.00000000
  ---------------------------------------------------
  free energy    TOTEN  =       -92.08113429 eV

  energy without entropy =      -92.04412083  energy(sigma->0) =      -92.06879647


--------------------------------------------------------------------------------------------------------




--------------------------------------- Iteration      1(  18)  ---------------------------------------


    POTLOK:  cpu time    0.0192: real time    0.0211
    SETDIJ:  cpu time    0.0023: real time    0.0023
     EDDAV:  cpu time    6.5140: real time    6.5141
       DOS:  cpu time    0.0058: real time    0.0058
    CHARGE:  cpu time    0.3518: real time    0.3518
    MIXING:  cpu time    0.0016: real time    0.0016
    --------------------------------------------
      LOOP:  cpu time    6.8946: real time    6.8967

 eigenvalue-minimisations  : 11128
 total energy-change (2. order) : 0.4386678E-03  (-0.3402102E-03)
 number of electron     160.0000138 magnetization 
 augmentation part       50.0544503 magnetization 

 Broyden mixing:
  rms(total) = 0.45638E-01    rms(broyden)= 0.45637E-01
  rms(prec ) = 0.60784E-01
  weight for this iteration     100.00

 eigenvalues of (default mixing * dielectric matrix)
  average eigenvalue GAMMA=   0.8263
  1.9884  1.9884  1.7159  0.9858  0.9858  0.5802  0.5802  0.5819  0.1600  0.3542
  0.2472  0.2867  0.2867

 Free energy of the ion-electron system (eV)
  ---------------------------------------------------
  alpha Z        PSCENC =       350.82459594
  Ewald energy   TEWEN  =     72997.72182899
  -Hartree energ DENC   =    -85057.28707738
  -exchange      EXHF   =         0.00000000
  -V(xc)+E(xc)   XCENC  =        41.17461245
  PAW double counting   =     14287.78679346   -13873.78058971
  entropy T*S    EENTRO =        -0.03757503
  eigenvalues    EBANDS =      -532.17749394
  atomic energy  EATOM  =     11693.69420960
  Solvation  Ediel_sol  =         0.00000000
  ---------------------------------------------------
  free energy    TOTEN  =       -92.08069562 eV

[...]
     80      -0.0454      1.11525
     81       0.0126      0.63440
     82       0.0550      0.33644
     83       0.1284      0.01941
     84       0.2939     -0.04351
     85       0.3136     -0.03480
     86       0.4322     -0.00498
     87       1.9562     -0.00000
     88       1.9824     -0.00000
     89       2.0609     -0.00000
     90       2.5368     -0.00000
     91       2.5626     -0.00000
     92       2.5879     -0.00000
     93       3.6565     -0.00000
     94       3.6674     -0.00000
     95       4.0695     -0.00000
     96       5.1578     -0.00000

 k-point    51 :      -0.4375    0.4375    0.0000
  band No.  band energies     occupation 
      1      -7.6140      2.00000
      2      -7.5883      2.00000
      3      -6.6337      2.00000
      4      -6.5677      2.00000
      5      -6.1299      2.00000
      6      -5.8706      2.00000
      7      -5.8356      2.00000
      8      -5.7673      2.00000
      9      -5.6554      2.00000
     10      -5.5781      2.00000
     11      -5.5254      2.00000
     12      -5.4496      2.00000
     13      -5.4313      2.00000
     14      -5.2550      2.00000
     15      -5.0885      2.00000
     16      -5.0200      2.00000
     17      -5.0023      2.00000
     18      -4.9659      2.00000
     19      -4.8554      2.00000
     20      -4.8077      2.00000
     21      -4.6218      2.00000
     22      -4.6126      2.00000
     23      -4.5590      2.00000
     24      -4.5296      2.00000
     25      -4.4782      2.00000
     26      -4.4097      2.00000
     27      -4.3583      2.00000
     28      -4.3205      2.00000
     29      -4.0764      2.00000
     30      -4.0019      2.00000
     31      -3.9412      2.00000
     32      -3.8745      2.00000
     33      -3.8430      2.00000
     34      -3.7409      2.00000
     35      -3.7089      2.00000
     36      -3.6021      2.00000
     37      -3.5141      2.00000
     38      -3.4347      2.00000
     39      -3.3788      2.00000
     40      -3.3674      2.00000
     41      -3.3294      2.00000
     42      -3.1907      2.00000
     43      -3.0974      2.00000
     44      -3.0172      2.00000
     45      -2.9996      2.00000
     46      -2.9607      2.00000
     47      -2.9096      2.00000
     48      -2.8773      2.00000
     49      -2.8252      2.00000
     50      -2.7571      2.00000
     51      -2.6274      2.00000
     52      -2.5841      2.00000
     53      -2.4394      2.00000
     54      -2.2517      2.00000
     55      -2.2131      2.00000
     56      -2.1534      2.00000
     57      -2.1156      2.00000
     58      -2.0897      2.00000
     59      -1.9538      2.00000
     60      -1.8535      2.00000
     61      -1.7782      2.00000
     62      -1.7149      2.00000
     63      -1.6426      2.00000
     64      -1.5655      2.00000
     65      -1.4739      2.00000
     66      -1.4385      2.00000
     67      -1.3645      2.00000
     68      -1.2786      2.00000
     69      -1.2063      2.00000
     70      -1.1382      2.00000
     71      -1.1165      2.00000
     72      -1.0403      2.00000
     73      -0.9381      2.00000
     74      -0.8146      2.00000
     75      -0.6898      2.00003
     76      -0.5849      2.00065
     77      -0.5167      2.00322
     78      -0.3132      2.06303
     79      -0.1905      1.97684
     80      -0.1208      1.67703
     81      -0.0820      1.41024
     82       0.0185      0.58913
     83       0.0945      0.13271
     84       0.1947     -0.06795
     85       0.3548     -0.01973
     86       0.3809     -0.01297
     87       1.0046     -0.00000
     88       1.2628     -0.00000
     89       2.2432     -0.00000
     90       2.3176     -0.00000
     91       2.4145     -0.00000
     92       3.1591     -0.00000
     93       3.9421     -0.00000
     94       4.2468     -0.00000
     95       4.7353     -0.00000
     96       4.7923     -0.00000

 k-point    52 :      -0.4375    0.1250    0.0000
  band No.  band energies     occupation 
      1      -7.6103      2.00000
      2      -7.5917      2.00000
      3      -6.6279      2.00000
      4      -6.5746      2.00000
      5      -6.1293      2.00000
      6      -5.8706      2.00000
      7      -5.8314      2.00000
      8      -5.7613      2.00000
      9      -5.6580      2.00000
     10      -5.5775      2.00000
     11      -5.5402      2.00000
     12      -5.4478      2.00000
     13      -5.4239      2.00000
     14      -5.2581      2.00000
     15      -5.0872      2.00000
     16      -5.0172      2.00000
     17      -5.0049      2.00000
     18      -4.9626      2.00000
     19      -4.8674      2.00000
     20      -4.8049      2.00000
     21      -4.6203      2.00000
     22      -4.6095      2.00000
     23      -4.5729      2.00000
     24      -4.5238      2.00000
     25      -4.4753      2.00000
     26      -4.3914      2.00000
     27      -4.3723      2.00000
     28      -4.3071      2.00000
     29      -4.1062      2.00000
     30      -3.9996      2.00000
     31      -3.9367      2.00000
     32      -3.8754      2.00000
     33      -3.8392      2.00000
     34      -3.7327      2.00000
     35      -3.7030      2.00000
     36      -3.5932      2.00000
     37      -3.5299      2.00000
     38      -3.4427      2.00000
     39      -3.3723      2.00000
     40      -3.3644      2.00000
     41      -3.3183      2.00000
     42      -3.1904      2.00000
     43      -3.1026      2.00000
     44      -3.0389      2.00000
     45      -2.9945      2.00000
     46      -2.9408      2.00000
     47      -2.9210      2.00000
     48      -2.8683      2.00000
     49      -2.8263      2.00000
     50      -2.7843      2.00000
     51      -2.6356      2.00000
     52      -2.5519      2.00000
     53      -2.4060      2.00000
     54      -2.2571      2.00000
     55      -2.2276      2.00000
     56      -2.1595      2.00000
     57      -2.1420      2.00000
     58      -2.0850      2.00000
     59      -1.9538      2.00000
     60      -1.8510      2.00000
     61      -1.7744      2.00000
     62      -1.7151      2.00000
     63      -1.6516      2.00000
     64      -1.5485      2.00000
     65      -1.4607      2.00000
     66      -1.4186      2.00000
     67      -1.3666      2.00000
     68      -1.3006      2.00000
     69      -1.2219      2.00000
     70      -1.1570      2.00000
     71      -1.1097      2.00000
     72      -1.0305      2.00000
     73      -0.9430      2.00000
     74      -0.8556      2.00000
     75      -0.6735      2.00006
     76      -0.5080      2.00387
     77      -0.4846      2.00622
     78      -0.3861      2.03109
     79      -0.2113      2.02199
     80      -0.1119      1.62159
     81      -0.0735      1.34500
     82      -0.0053      0.77835
     83       0.1423     -0.01187
     84       0.1722     -0.05413
     85       0.3367     -0.02571
     86       0.4015     -0.00901
     87       1.0050     -0.00000
     88       1.2625     -0.00000
     89       2.2373     -0.00000
     90       2.3510     -0.00000
     91       2.3859     -0.00000
     92       3.1544     -0.00000
     93       3.9578     -0.00000
     94       4.2340     -0.00000
     95       4.7410     -0.00000
     96       4.7885     -0.00000


--------------------------------------------------------------------------------------------------------


 soft charge-density along one line, spin component           1
         0         1         2         3         4         5         6         7         8         9
 total charge-density along one line
 
 pseudopotential strength for first ion, spin component:           1
 -7.752  -0.001   0.000  -0.005   0.000  -7.905  -0.001   0.000
 -0.001  -7.668   0.000  -0.000  -0.006  -0.001  -7.823   0.000
  0.000   0.000  -7.659  -0.000  -0.000   0.000   0.000  -7.814
 -0.005  -0.000  -0.000  -7.668  -0.001  -0.005  -0.000  -0.000
  0.000  -0.006  -0.000  -0.001  -7.752   0.000  -0.006  -0.000
 -7.905  -0.001   0.000  -0.005   0.000  -8.042  -0.001   0.000
 -0.001  -7.823   0.000  -0.000  -0.006  -0.001  -7.961   0.000
  0.000   0.000  -7.814  -0.000  -0.000   0.000   0.000  -7.952
 -0.005  -0.000  -0.000  -7.823  -0.001  -0.005  -0.000  -0.000
  0.000  -0.006  -0.000  -0.001  -7.905   0.000  -0.005  -0.000
  0.000  -0.000  -0.026   0.000  -0.000   0.000  -0.000  -0.026
  0.000  -0.000  -0.038   0.000  -0.000   0.000  -0.000  -0.038
 -0.000   0.000  -0.000   0.000  -0.000  -0.000  -0.000  -0.000
  0.000  -0.000   0.002   0.000  -0.000   0.000  -0.000   0.002
 -0.000   0.000   0.000   0.000  -0.000  -0.000   0.000   0.000
 -0.000  -0.001  -0.000   0.000  -0.001  -0.000  -0.002  -0.000
  0.000   0.000   0.001  -0.000  -0.000   0.000   0.000   0.000
 -0.000   0.000   0.000  -0.001  -0.000  -0.001   0.000   0.000
 total augmentation occupancy for first ion, spin component:           1
  4.779  -0.014  -0.001  -0.006   0.002  -2.973   0.011   0.001  -0.071  -0.002  -0.002  -0.002   0.000  -0.001   0.048  -0.000
 -0.014   4.902  -0.004  -0.001  -0.023   0.011  -2.601   0.003   0.001  -0.056   0.002   0.001   0.219  -0.000   0.000  -0.012
 -0.001  -0.004   5.475   0.007   0.001   0.001   0.003  -3.283  -0.005  -0.000   0.887  -0.076  -0.001   0.373   0.002  -0.000
 -0.006  -0.001   0.007   4.903  -0.014  -0.069   0.001  -0.005  -2.602   0.011  -0.003  -0.001   0.000   0.000   0.218   0.000
  0.002  -0.023   0.001  -0.014   4.782  -0.002  -0.058  -0.000   0.011  -2.975   0.001   0.001   0.048   0.000   0.000  -0.002
 -2.973   0.011   0.001  -0.069  -0.002   3.023  -0.008  -0.000   0.127   0.001   0.001   0.002   0.000   0.000  -0.045  -0.000
  0.011  -2.601   0.003   0.001  -0.058  -0.008   2.265  -0.002  -0.001   0.117  -0.000  -0.001  -0.202   0.000  -0.000   0.009
  0.001   0.003  -3.283  -0.005  -0.000  -0.000  -0.002   3.036   0.004   0.000  -0.809   0.086   0.001  -0.371  -0.002  -0.000
 -0.071   0.001  -0.005  -2.602   0.011   0.127  -0.001   0.004   2.265  -0.008   0.001   0.002  -0.000  -0.000  -0.202  -0.000
 -0.002  -0.056  -0.000   0.011  -2.975   0.001   0.117   0.000  -0.008   3.024  -0.001  -0.001  -0.045  -0.000   0.000   0.001
 -0.002   0.002   0.887  -0.003   0.001   0.001  -0.000  -0.809   0.001  -0.001   2.544  -0.576  -0.000  -0.164   0.000   0.000
 -0.002   0.001  -0.076  -0.001   0.001   0.002  -0.001   0.086   0.002  -0.001  -0.576   0.171   0.000   0.076  -0.000  -0.000
  0.000   0.219  -0.001   0.000   0.048   0.000  -0.202   0.001  -0.000  -0.045  -0.000   0.000   0.237  -0.000  -0.000  -0.007
 -0.001  -0.000   0.373   0.000   0.000   0.000   0.000  -0.371  -0.000  -0.000  -0.164   0.076  -0.000   0.131   0.001   0.000
  0.048   0.000   0.002   0.218   0.000  -0.045  -0.000  -0.002  -0.202   0.000   0.000  -0.000  -0.000   0.001   0.237   0.000
 -0.000  -0.012  -0.000   0.000  -0.002  -0.000   0.009  -0.000  -0.000   0.001   0.000  -0.000  -0.007   0.000   0.000   0.000
  0.000  -0.000  -0.009   0.000  -0.000  -0.000   0.000   0.011  -0.000   0.000   0.008  -0.003   0.000  -0.004  -0.000   0.000
 -0.002   0.000   0.000  -0.012  -0.000   0.001  -0.000   0.000   0.009  -0.000  -0.000   0.000   0.000  -0.000  -0.007  -0.000


------------------------ aborting loop because EDIFF is reached ----------------------------------------



 DIPCOR: dipole corrections for dipol
 direction  3 min pos   249,
 dipolmoment           0.000000      0.000000     -0.014243 electrons x Angstroem
 Tr[quadrupol]      -954.001020

 energy correction for charged system         0.000000 eV
 dipol+quadrupol energy correction            0.000026 eV
 added-field ion interaction          0.000000 eV  (added to PSCEN)

 
  *************** adding dipol energy to TOTEN NOW **************** 
    CHARGE:  cpu time    0.3536: real time    0.3536
    FORLOC:  cpu time    0.0043: real time    0.0043
    FORNL :  cpu time    1.3494: real time    1.3494
    STRESS:  cpu time    4.0572: real time    4.0573
    FORCOR:  cpu time    0.0230: real time    0.0230
    FORHAR:  cpu time    0.0081: real time    0.0081
    MIXING:  cpu time    0.0029: real time    0.0029
    OFIELD:  cpu time    0.0000: real time    0.0000

  FORCE on cell =-STRESS in cart. coord.  units (eV):
  Direction    XX          YY          ZZ          XY          YZ          ZX
  --------------------------------------------------------------------------------------
  Alpha Z   350.82460   350.82460   350.82460
  Ewald   81914.58668 81914.58051-90831.46135    -0.00535    -0.00000    -0.00000
  Hartree 84370.89825 84370.91390-83677.22430     0.01355    -0.03946     0.06834
  E(xc)    -710.42659  -710.43084  -715.14307    -0.00361     0.00845    -0.01465
  Local  ************************171613.10949    -0.07573     0.18269    -0.31651
  n-local    67.32574    60.39088    47.57044     2.01258    -0.40084    -0.27049
  augment   834.09507   834.12610   861.36708     0.02534    -0.06334     0.10953
  Kinetic  2286.14614  2281.30953  2353.78088     1.47415    -0.57444    -0.02608
  Fock        0.00000     0.00000     0.00000     0.00000     0.00000     0.00000
  -------------------------------------------------------------------------------------
  Total      -7.94569    -7.92237     2.82378     0.02019    -0.02815     0.04876
  in kB     -17.85429   -17.80190     6.34514     0.04537    -0.06326     0.10956
  external pressure =       -9.77 kB  Pullay stress =        0.00 kB


 VOLUME and BASIS-vectors are now :
 -----------------------------------------------------------------------------
  energy-cutoff  :      350.00
  volume of cell :      713.02
      direct lattice vectors                 reciprocal lattice vectors
     5.543717165  0.000000000  0.000000000     0.180384383 -0.104144972  0.000000000
     2.771858582  4.800999896  0.000000000     0.000000000  0.208289944  0.000000000
     0.000000000  0.000000000 26.789639166     0.000000000  0.000000000  0.037327864

  length of vectors
     5.543717165  5.543717165 26.789639166     0.208289944  0.208289944  0.037327864


 FORCES acting on ions
    electron-ion (+dipol)            ewald-force                    non-local-force                 convergence-correction
 -----------------------------------------------------------------------------------------------
   0.162E-02 -.939E-03 -.291E+04   0.101E-11 0.613E-12 0.291E+04   0.137E-01 -.789E-02 0.291E+00   0.277E-03 -.160E-03 -.131E-01
   0.187E-01 -.108E-01 0.242E+04   -.917E-12 -.603E-12 -.242E+04   0.230E-01 -.133E-01 -.236E+00   -.483E-04 0.279E-04 -.114E-01
   -.241E-01 -.577E-01 0.269E+04   -.105E-11 -.648E-12 -.269E+04   -.150E-01 0.729E-01 -.975E+00   0.495E-04 0.243E-03 -.127E-01
   0.379E-01 0.497E-01 0.269E+04   -.109E-11 -.651E-12 -.269E+04   -.706E-01 -.234E-01 -.975E+00   -.186E-03 -.164E-03 -.127E-01
   -.318E-01 0.184E-01 0.269E+04   -.106E-11 -.658E-12 -.269E+04   0.501E-01 -.290E-01 -.959E+00   0.185E-03 -.107E-03 -.126E-01
   -.501E+01 0.289E+01 0.936E+03   0.522E+01 -.301E+01 -.936E+03   -.454E-01 0.262E-01 0.237E+00   0.882E-03 -.509E-03 -.451E-01
   0.502E+01 0.318E+01 0.937E+03   -.522E+01 -.328E+01 -.937E+03   0.431E-01 0.166E-01 0.128E+00   -.878E-03 -.655E-03 -.450E-01
   0.243E+00 -.140E+00 0.932E+03   -.234E+00 0.135E+00 -.931E+03   -.431E-02 0.249E-02 0.105E+00   -.126E-03 0.730E-04 -.441E-01
   -.242E+00 -.594E+01 0.937E+03   0.234E+00 0.616E+01 -.937E+03   0.714E-02 -.456E-01 0.128E+00   0.128E-03 0.109E-02 -.450E-01
   -.462E+01 0.267E+01 -.848E+03   0.473E+01 -.273E+01 0.847E+03   0.297E-01 -.171E-01 0.518E+00   -.803E-03 0.464E-03 -.445E-01
   0.462E+01 0.298E+01 -.847E+03   -.473E+01 -.303E+01 0.847E+03   -.222E-01 -.296E-01 0.392E+00   0.804E-03 -.116E-03 -.441E-01
   0.269E+00 -.155E+00 -.852E+03   -.258E+00 0.149E+00 0.852E+03   -.168E-01 0.972E-02 0.327E+00   -.498E-03 0.287E-03 -.450E-01
   -.272E+00 -.549E+01 -.847E+03   0.258E+00 0.561E+01 0.847E+03   0.145E-01 0.341E-01 0.392E+00   0.503E-03 -.639E-03 -.441E-01
   0.401E-01 0.323E-01 -.264E+04   0.868E-12 0.534E-12 0.264E+04   -.444E-01 -.147E-01 0.941E+00   0.103E-03 0.338E-03 -.122E-01
   -.442E-01 0.255E-01 -.264E+04   0.894E-12 0.540E-12 0.264E+04   0.574E-01 -.331E-01 0.943E+00   -.103E-03 0.597E-04 -.118E-01
   -.790E-02 -.509E-01 -.264E+04   0.859E-12 0.539E-12 0.264E+04   -.944E-02 0.458E-01 0.941E+00   -.241E-03 -.258E-03 -.122E-01
 -----------------------------------------------------------------------------------------------
   -.104E-01 0.603E-02 -.173E+01   -.178E-13 -.440E-13 0.182E-11   0.104E-01 -.600E-02 0.220E+01   0.475E-04 -.275E-04 -.455E+00
 
 
 POSITION                                       TOTAL-FORCE (eV/Angst)
 -----------------------------------------------------------------------------------
      4.15779      2.40050     16.90767         0.015569     -0.008989      1.058870
      2.77186      0.00000     10.00000         0.041696     -0.024073      0.729614
      0.00000      0.00000     10.00000        -0.039122      0.015458     -0.563529
      1.38593      2.40050     10.00000        -0.032948      0.026151     -0.563529
      4.15779      2.40050     10.00000         0.018544     -0.010706     -0.546294
      1.38593      0.80017     12.26321         0.158353     -0.091425     -0.095207
      4.15779      0.80017     12.26321        -0.153101     -0.087566      0.165192
      2.77186      3.20067     12.26321         0.004835     -0.002791      0.537306
      5.54372      3.20067     12.26321        -0.000716      0.176372      0.165192
      5.54372      1.60033     14.56863         0.137467     -0.079367     -0.342614
      2.77186      1.60033     14.56863        -0.136642     -0.080512     -0.128189
      6.92965      4.00083     14.56863        -0.006711      0.003875      0.129768
      4.15779      4.00083     14.56863         0.001405      0.158591     -0.128189
      0.00000      0.00000     16.90767        -0.004190      0.017881     -0.141267
      2.77186      0.00000     16.90767         0.013141     -0.007587     -0.135857
      1.38593      2.40050     16.90767        -0.017581     -0.005312     -0.141267
 -----------------------------------------------------------------------------------
    total drift:                                0.000002     -0.000004      0.012689


--------------------------------------------------------------------------------------------------------



  FREE ENERGIE OF THE ION-ELECTRON SYSTEM (eV)
  ---------------------------------------------------
  free  energy   TOTEN  =       -92.07866239 eV

  energy  without entropy=      -92.04092741  energy(sigma->0) =      -92.06608407
 


--------------------------------------------------------------------------------------------------------


    POTLOK:  cpu time    0.0212: real time    0.0212


--------------------------------------------------------------------------------------------------------


     LOOP+:  cpu time  221.8133: real time  221.8620
    4ORBIT:  cpu time    0.0000: real time    0.0000

 total amount of memory used by VASP MPI-rank0    94502. kBytes
=======================================================================

   base      :      30000. kBytes
   nonlr-proj:       2110. kBytes
   fftplans  :       2594. kBytes
   grid      :       4625. kBytes
   one-center:         62. kBytes
   wavefun   :      55111. kBytes
 
  
  
 General timing and accounting informations for this job:
 ========================================================
  
                  Total CPU time used (sec):      225.567
                            User time (sec):      224.880
                          System time (sec):        0.687
                         Elapsed time (sec):      225.826
  
                   Maximum memory used (kb):      131616.
                   Average memory used (kb):           0.
  
                          Minor page faults:        65259
                          Major page faults:            0
                 Voluntary context switches:          715
