 vasp.5.4.4.18Apr17-6-g9f103f2a35 (build Apr 28 2017 10:53:45) complex          
  
 executed on             LinuxIFC date 2019.07.18  16:48:50
 running on   16 total cores
 distrk:  each k-point on   16 cores,    1 groups
 distr:  one band on NCORES_PER_BAND=   4 cores,    4 groups


--------------------------------------------------------------------------------------------------------


 INCAR:
 POTCAR:    PAW_PBE Au 04Oct2007                  
 POTCAR:    PAW_PBE C 08Apr2002                   
 POTCAR:    PAW_PBE H 15Jun2001                   
 POTCAR:    PAW_PBE Ir 06Sep2000                  
 POTCAR:    PAW_PBE Pt 04Feb2005                  
 POTCAR:    PAW_PBE Au 04Oct2007                  
   VRHFIN =Au: s1d10                                                            
   LEXCH  = PE                                                                  
   EATOM  =   926.0867 eV,   68.0654 Ry                                         
                                                                                
   TITEL  = PAW_PBE Au 04Oct2007                                                
   LULTRA =        F    use ultrasoft PP ?                                      
   IUNSCR =        1    unscreen: 0-lin 1-nonlin 2-no                           
   RPACOR =    2.330    partial core radius                                     
   POMASS =  196.966; ZVAL   =   11.000    mass and valenz                      
   RCORE  =    2.500    outmost cutoff radius                                   
   RWIGS  =    2.840; RWIGS  =    1.503    wigner-seitz radius (au A)           
   ENMAX  =  229.943; ENMIN  =  172.457 eV                                      
   ICORE  =        3    local potential                                         
   LCOR   =        T    correct aug charges                                     
   LPAW   =        T    paw PP                                                  
   EAUG   =  356.670                                                            
   DEXC   =    0.000                                                            
   RMAX   =    2.562    core radius for proj-oper                               
   RAUG   =    1.300    factor for augmentation sphere                          
   RDEP   =    2.598    radius for radial grids                                 
   RDEPT  =    2.193    core radius for aug-charge                              
                                                                                
   Atomic configuration                                                         
   16 entries                                                                   
     n  l   j            E        occ.                                          
     1  0  0.50    -80748.5001   2.0000                                         
     2  0  0.50    -14244.7466   2.0000                                         
     2  1  1.50    -12310.9591   6.0000                                         
     3  0  0.50     -3362.1768   2.0000                                         
     3  1  1.50     -2801.5463   6.0000                                         
     3  2  2.50     -2203.8206  10.0000                                         
     4  0  0.50      -729.8168   2.0000                                         
     4  1  1.50      -546.0527   6.0000                                         
     4  2  2.50      -325.7302  10.0000                                         
     4  3  3.50       -81.1472  14.0000                                         
     5  0  0.50      -108.3201   2.0000                                         
     5  1  1.50       -59.7479   6.0000                                         
     5  2  2.50        -6.8783  10.0000                                         
     6  0  0.50        -5.7602   1.0000                                         
     6  1  1.50        -6.8029   0.0000                                         
     5  3  2.50        -1.3606   0.0000                                         
   Description                                                                  
     l       E           TYP  RCUT    TYP  RCUT                                 
     2     -6.8782861     23  2.500                                             
     2     -8.2388687     23  2.500                                             
     0     -5.7601759     23  2.500                                             
     0     -0.8493231     23  2.500                                             
     1     -2.7211652     23  2.500                                             
     1     27.2116520     23  2.500                                             
     3     -1.3605826     23  2.500                                             
  local pseudopotential read in
  partial core-charges read in
  partial kinetic energy density read in
  atomic valenz-charges read in
  non local Contribution for L=           2  read in
    real space projection operators read in
  non local Contribution for L=           2  read in
    real space projection operators read in
  non local Contribution for L=           0  read in
    real space projection operators read in
  non local Contribution for L=           0  read in
    real space projection operators read in
  non local Contribution for L=           1  read in
    real space projection operators read in
  non local Contribution for L=           1  read in
    real space projection operators read in
    PAW grid and wavefunctions read in
 
   number of l-projection  operators is LMAX  =           6
   number of lm-projection operators is LMMAX =          18
 
 POTCAR:    PAW_PBE C 08Apr2002                   
   VRHFIN =C: s2p2                                                              
   LEXCH  = PE                                                                  
   EATOM  =   147.1560 eV,   10.8157 Ry                                         
                                                                                
   TITEL  = PAW_PBE C 08Apr2002                                                 
   LULTRA =        F    use ultrasoft PP ?                                      
   IUNSCR =        1    unscreen: 0-lin 1-nonlin 2-no                           
   RPACOR =    1.200    partial core radius                                     
   POMASS =   12.011; ZVAL   =    4.000    mass and valenz                      
   RCORE  =    1.500    outmost cutoff radius                                   
   RWIGS  =    1.630; RWIGS  =    0.863    wigner-seitz radius (au A)           
   ENMAX  =  400.000; ENMIN  =  300.000 eV                                      
   ICORE  =        2    local potential                                         
   LCOR   =        T    correct aug charges                                     
   LPAW   =        T    paw PP                                                  
   EAUG   =  644.873                                                            
   DEXC   =    0.000                                                            
   RMAX   =    1.529    core radius for proj-oper                               
   RAUG   =    1.300    factor for augmentation sphere                          
   RDEP   =    1.501    radius for radial grids                                 
   RDEPT  =    1.300    core radius for aug-charge                              
                                                                                
   Atomic configuration                                                         
    4 entries                                                                   
     n  l   j            E        occ.                                          
     1  0  0.50      -273.3789   2.0000                                         
     2  0  0.50       -13.7508   2.0000                                         
     2  1  0.50        -5.2854   2.0000                                         
     3  2  1.50        -5.4423   0.0000                                         
   Description                                                                  
     l       E           TYP  RCUT    TYP  RCUT                                 
     0    -13.7508458     23  1.200                                             
     0     -8.2022199     23  1.200                                             
     1     -5.2854383     23  1.500                                             
     1     34.0145650     23  1.500                                             
     2     -5.4423304      7  1.500                                             
  local pseudopotential read in
  partial core-charges read in
  partial kinetic energy density read in
  atomic valenz-charges read in
  non local Contribution for L=           0  read in
    real space projection operators read in
  non local Contribution for L=           0  read in
    real space projection operators read in
  non local Contribution for L=           1  read in
    real space projection operators read in
  non local Contribution for L=           1  read in
    real space projection operators read in
    PAW grid and wavefunctions read in
 
   number of l-projection  operators is LMAX  =           4
   number of lm-projection operators is LMMAX =           8
 
 POTCAR:    PAW_PBE H 15Jun2001                   
   VRHFIN =H: ultrasoft test                                                    
   LEXCH  = PE                                                                  
   EATOM  =    12.4884 eV,    0.9179 Ry                                         
                                                                                
   TITEL  = PAW_PBE H 15Jun2001                                                 
   LULTRA =        F    use ultrasoft PP ?                                      
   IUNSCR =        0    unscreen: 0-lin 1-nonlin 2-no                           
   RPACOR =    0.000    partial core radius                                     
   POMASS =    1.000; ZVAL   =    1.000    mass and valenz                      
   RCORE  =    1.100    outmost cutoff radius                                   
   RWIGS  =    0.700; RWIGS  =    0.370    wigner-seitz radius (au A)           
   ENMAX  =  250.000; ENMIN  =  200.000 eV                                      
   RCLOC  =    0.701    cutoff for local pot                                    
   LCOR   =        T    correct aug charges                                     
   LPAW   =        T    paw PP                                                  
   EAUG   =  400.000                                                            
   RMAX   =    1.123    core radius for proj-oper                               
   RAUG   =    1.200    factor for augmentation sphere                          
   RDEP   =    1.112    radius for radial grids                                 
   RDEPT  =    0.926    core radius for aug-charge                              
                                                                                
   Atomic configuration                                                         
    2 entries                                                                   
     n  l   j            E        occ.                                          
     1  0  0.50        -6.4927   1.0000                                         
     2  1  0.50        -3.4015   0.0000                                         
   Description                                                                  
     l       E           TYP  RCUT    TYP  RCUT                                 
     0     -6.4927494     23  1.100                                             
     0      6.8029130     23  1.100                                             
     1     -4.0817478     23  1.100                                             
  local pseudopotential read in
  atomic valenz-charges read in
  non local Contribution for L=           0  read in
    real space projection operators read in
  non local Contribution for L=           0  read in
    real space projection operators read in
  non local Contribution for L=           1  read in
    real space projection operators read in
    PAW grid and wavefunctions read in
 
   number of l-projection  operators is LMAX  =           3
   number of lm-projection operators is LMMAX =           5
 
 POTCAR:    PAW_PBE Ir 06Sep2000                  
   VRHFIN =Ir: s1d8                                                             
   LEXCH  = PE                                                                  
   EATOM  =   560.1833 eV,   41.1723 Ry                                         
                                                                                
   TITEL  = PAW_PBE Ir 06Sep2000                                                
   LULTRA =        F    use ultrasoft PP ?                                      
   IUNSCR =        1    unscreen: 0-lin 1-nonlin 2-no                           
   RPACOR =    2.250    partial core radius                                     
   POMASS =  192.220; ZVAL   =    9.000    mass and valenz                      
   RCORE  =    2.600    outmost cutoff radius                                   
   RWIGS  =    2.690; RWIGS  =    1.423    wigner-seitz radius (au A)           
   ENMAX  =  210.864; ENMIN  =  158.148 eV                                      
   RCLOC  =    1.857    cutoff for local pot                                    
   LCOR   =        T    correct aug charges                                     
   LPAW   =        T    paw PP                                                  
   EAUG   =  318.962                                                            
   DEXC   =    0.000                                                            
   RMAX   =    2.667    core radius for proj-oper                               
   RAUG   =    1.300    factor for augmentation sphere                          
   RDEP   =    2.748    radius for radial grids                                 
   RDEPT  =    2.300    core radius for aug-charge                              
                                                                                
   Atomic configuration                                                         
   16 entries                                                                   
     n  l   j            E        occ.                                          
     1  0  0.50    -76100.0449   2.0000                                         
     2  0  0.50    -13308.1683   2.0000                                         
     2  1  1.50    -11558.0021   6.0000                                         
     3  0  0.50     -3110.7274   2.0000                                         
     3  1  1.50     -2599.2109   6.0000                                         
     3  2  2.50     -2037.1515  10.0000                                         
     4  0  0.50      -661.6001   2.0000                                         
     4  1  1.50      -493.8981   6.0000                                         
     4  2  2.50      -288.1909  10.0000                                         
     4  3  3.50       -59.5718  14.0000                                         
     5  0  0.50       -95.3879   2.0000                                         
     5  1  1.50       -52.2747   6.0000                                         
     5  2  2.50        -5.4180   8.0000                                         
     6  0  0.50        -5.5479   1.0000                                         
     6  1  1.50        -6.8029   0.0000                                         
     5  3  2.50        -1.3606   0.0000                                         
   Description                                                                  
     l       E           TYP  RCUT    TYP  RCUT                                 
     2     -5.4179967     23  2.600                                             
     2     -6.7785793     23  2.600                                             
     0     -5.5478636     23  2.600                                             
     0      2.2542272     23  2.600                                             
     1     -2.7211652     23  2.600                                             
     1     20.4087390     23  2.600                                             
  local pseudopotential read in
  partial core-charges read in
  partial kinetic energy density read in
  atomic valenz-charges read in
  non local Contribution for L=           2  read in
    real space projection operators read in
  non local Contribution for L=           2  read in
    real space projection operators read in
  non local Contribution for L=           0  read in
    real space projection operators read in
  non local Contribution for L=           0  read in
    real space projection operators read in
  non local Contribution for L=           1  read in
    real space projection operators read in
  non local Contribution for L=           1  read in
    real space projection operators read in
    PAW grid and wavefunctions read in
 
   number of l-projection  operators is LMAX  =           6
   number of lm-projection operators is LMMAX =          18
 
 POTCAR:    PAW_PBE Pt 04Feb2005                  
   VRHFIN =Pt: s1d9                                                             
   LEXCH  = PE                                                                  
   EATOM  =   729.1176 eV,   53.5886 Ry                                         
                                                                                
   TITEL  = PAW_PBE Pt 04Feb2005                                                
   LULTRA =        F    use ultrasoft PP ?                                      
   IUNSCR =        1    unscreen: 0-lin 1-nonlin 2-no                           
   RPACOR =    2.330    partial core radius                                     
   POMASS =  195.080; ZVAL   =   10.000    mass and valenz                      
   RCORE  =    2.600    outmost cutoff radius                                   
   RWIGS  =    2.750; RWIGS  =    1.455    wigner-seitz radius (au A)           
   ENMAX  =  230.283; ENMIN  =  172.712 eV                                      
   ICORE  =        3    local potential                                         
   LCOR   =        T    correct aug charges                                     
   LPAW   =        T    paw PP                                                  
   EAUG   =  358.966                                                            
   DEXC   =    0.000                                                            
   RMAX   =    2.658    core radius for proj-oper                               
   RAUG   =    1.300    factor for augmentation sphere                          
   RDEP   =    2.761    radius for radial grids                                 
   RDEPT  =    2.203    core radius for aug-charge                              
                                                                                
   Atomic configuration                                                         
   16 entries                                                                   
     n  l   j            E        occ.                                          
     1  0  0.50    -78401.1885   2.0000                                         
     2  0  0.50    -13770.7750   2.0000                                         
     2  1  1.50    -11931.0468   6.0000                                         
     3  0  0.50     -3234.7234   2.0000                                         
     3  1  1.50     -2699.2216   6.0000                                         
     3  2  2.50     -2119.5714  10.0000                                         
     4  0  0.50      -695.1528   2.0000                                         
     4  1  1.50      -519.6034   6.0000                                         
     4  2  2.50      -306.6786  10.0000                                         
     4  3  3.50       -70.1041  14.0000                                         
     5  0  0.50      -101.7747   2.0000                                         
     5  1  1.50       -55.9873   6.0000                                         
     5  2  2.50        -6.1423   9.0000                                         
     6  0  0.50        -5.6573   1.0000                                         
     6  1  1.50        -6.8029   0.0000                                         
     5  3  2.50        -1.3606   0.0000                                         
   Description                                                                  
     l       E           TYP  RCUT    TYP  RCUT                                 
     2     -6.1423404     23  2.500                                             
     2     -7.5029230     23  2.500                                             
     0     -5.6573207     23  2.500                                             
     0      0.7416693     23  2.500                                             
     1     -2.7211652     23  2.600                                             
     1     20.4087390     23  2.600                                             
     3     -1.3605826     23  2.500                                             
  local pseudopotential read in
  partial core-charges read in
  partial kinetic energy density read in
  atomic valenz-charges read in
  non local Contribution for L=           2  read in
    real space projection operators read in
  non local Contribution for L=           2  read in
    real space projection operators read in
  non local Contribution for L=           0  read in
    real space projection operators read in
  non local Contribution for L=           0  read in
    real space projection operators read in
  non local Contribution for L=           1  read in
    real space projection operators read in
  non local Contribution for L=           1  read in
    real space projection operators read in
    PAW grid and wavefunctions read in
 
   number of l-projection  operators is LMAX  =           6
   number of lm-projection operators is LMMAX =          18
 
 Optimization of the real space projectors (new method)

 maximal supplied QI-value         = 15.12
 optimisation between [QCUT,QGAM] = [  9.52, 19.05] = [ 25.40,101.61] Ry 
 Optimized for a Real-space Cutoff    1.57 Angstroem

   l    n(q)    QCUT    max X(q) W(low)/X(q) W(high)/X(q)  e(spline) 
   2      8     9.524    60.898    0.38E-03    0.43E-04    0.84E-07
   2      8     9.524    58.894    0.38E-03    0.47E-04    0.88E-07
   0      9     9.524   109.617    0.60E-04    0.64E-04    0.80E-07
   0      9     9.524    75.026    0.59E-04    0.62E-04    0.78E-07
   1      8     9.524    16.344    0.99E-04    0.18E-03    0.87E-07
   1      8     9.524    10.160    0.78E-04    0.15E-03    0.74E-07
 Optimization of the real space projectors (new method)

 maximal supplied QI-value         = 25.13
 optimisation between [QCUT,QGAM] = [  9.55, 19.10] = [ 25.54,102.17] Ry 
 Optimized for a Real-space Cutoff    1.39 Angstroem

   l    n(q)    QCUT    max X(q) W(low)/X(q) W(high)/X(q)  e(spline) 
   0      8     9.551   115.676    0.39E-03    0.54E-03    0.29E-06
   0      8     9.551    87.132    0.39E-03    0.54E-03    0.28E-06
   1      7     9.551     4.429    0.35E-03    0.51E-04    0.29E-06
   1      7     9.551     2.733    0.22E-03    0.42E-04    0.31E-06
 Optimization of the real space projectors (new method)

 maximal supplied QI-value         = 34.20
 optimisation between [QCUT,QGAM] = [  9.58, 19.15] = [ 25.68,102.74] Ry 
 Optimized for a Real-space Cutoff    1.31 Angstroem

   l    n(q)    QCUT    max X(q) W(low)/X(q) W(high)/X(q)  e(spline) 
   0      7     9.577    19.460    0.33E-03    0.12E-03    0.35E-06
   0      7     9.577    12.209    0.33E-03    0.11E-03    0.33E-06
   1      7     9.577     4.655    0.39E-03    0.14E-02    0.33E-06
 Optimization of the real space projectors (new method)

 maximal supplied QI-value         = 14.36
 optimisation between [QCUT,QGAM] = [  9.48, 19.10] = [ 25.16,102.17] Ry 
 Optimized for a Real-space Cutoff    1.57 Angstroem

   l    n(q)    QCUT    max X(q) W(low)/X(q) W(high)/X(q)  e(spline) 
   2      8     9.479   134.116    0.18E-03    0.75E-03    0.26E-06
   2      8     9.479   130.192    0.18E-03    0.75E-03    0.27E-06
   0      9     9.479    60.310    0.39E-03    0.24E-03    0.63E-07
   0      9     9.479    39.218    0.36E-03    0.22E-03    0.59E-07
   1      8     9.479    18.439    0.20E-03    0.15E-03    0.16E-06
   1      8     9.479    12.760    0.16E-03    0.11E-03    0.13E-06
 Optimization of the real space projectors (new method)

 maximal supplied QI-value         = 14.36
 optimisation between [QCUT,QGAM] = [  9.48, 19.10] = [ 25.16,102.17] Ry 
 Optimized for a Real-space Cutoff    1.57 Angstroem

   l    n(q)    QCUT    max X(q) W(low)/X(q) W(high)/X(q)  e(spline) 
   2      8     9.479    66.195    0.35E-03    0.53E-04    0.87E-07
   2      8     9.479    64.643    0.35E-03    0.57E-04    0.91E-07
   0      9     9.479    95.520    0.50E-04    0.62E-04    0.81E-07
   0      9     9.479    63.403    0.49E-04    0.60E-04    0.78E-07
   1      8     9.479    19.961    0.10E-03    0.87E-04    0.11E-06
   1      8     9.479    13.289    0.88E-04    0.71E-04    0.97E-07
  PAW_PBE Au 04Oct2007                  :
 energy of atom  1       EATOM= -926.0867
 kinetic energy error for atom=    0.0152 (will be added to EATOM!!)
  PAW_PBE C 08Apr2002                   :
 energy of atom  2       EATOM= -147.1560
 kinetic energy error for atom=    0.0854 (will be added to EATOM!!)
  PAW_PBE H 15Jun2001                   :
 energy of atom  3       EATOM=  -12.4884
 kinetic energy error for atom=    0.0203 (will be added to EATOM!!)
  PAW_PBE Ir 06Sep2000                  :
 energy of atom  4       EATOM= -560.1833
 kinetic energy error for atom=    0.0056 (will be added to EATOM!!)
  PAW_PBE Pt 04Feb2005                  :
 energy of atom  5       EATOM= -729.1176
 kinetic energy error for atom=    0.0144 (will be added to EATOM!!)
 
 
 POSCAR: Au  C  H Ir Pt                          
  positions in cartesian coordinates
  No initial velocities read in
 exchange correlation table for  LEXCH =        8
   RHO(1)=    0.500       N(1)  =     2000
   RHO(2)=  100.500       N(2)  =     4000
 


--------------------------------------------------------------------------------------------------------


 ion  position               nearest neighbor table
   1  0.838  0.833  0.539-  11 2.78  13 2.78  10 2.78  10 2.78  13 2.78  11 2.78   8 2.79  20 2.80
                             9 2.80  15 2.82  14 2.82  16 2.83
   2  0.000  0.045  0.720-   5 1.10   3 1.10   4 1.10   6 1.10
   3  0.844  0.185  0.744-   2 1.10
   4  0.929  0.912  0.705-   2 1.10
   5  0.201  0.914  0.736-   2 1.10
   6  0.026  0.171  0.695-   2 1.10
   7  0.501  0.000  0.389-  18 2.78  19 2.78  21 2.78  21 2.78  19 2.78  18 2.78  12 2.82   9 2.83
                            20 2.83
   8  0.169  0.667  0.465-  20 2.78  12 2.78   9 2.78   9 2.78  12 2.78  20 2.78   1 2.79  11 2.80
                            13 2.80  18 2.82  21 2.82  19 2.83
   9  0.669  0.667  0.465-  20 2.78  12 2.78   8 2.78   8 2.78  12 2.78  20 2.78  13 2.79  10 2.80
                             1 2.80  19 2.82   7 2.83  18 2.83
  10  0.838  0.333  0.539-  13 2.78   1 2.78  11 2.78   1 2.78  11 2.78  13 2.78  12 2.79   9 2.80
                            20 2.80  17 2.82  14 2.82  16 2.83
  11  0.338  0.333  0.539-   1 2.78  13 2.78  10 2.78  10 2.78  13 2.78   1 2.78  20 2.80   8 2.80
                            12 2.81  16 2.82  15 2.82  17 2.82
  12  0.169  0.167  0.465-   9 2.78   8 2.78  20 2.78  20 2.78   8 2.78   9 2.78  10 2.79  13 2.80
                            11 2.81   7 2.82  19 2.82  21 2.83
  13  0.338  0.833  0.539-  11 2.78  10 2.78   1 2.78   1 2.78  10 2.78  11 2.78   9 2.79  12 2.80
                             8 2.80  14 2.81  17 2.82  15 2.83
  14  0.007  0.999  0.614-  17 2.78  16 2.78  15 2.78  15 2.78  16 2.78  17 2.78  13 2.81  10 2.82
                             1 2.82
  15  0.507  0.999  0.615-  17 2.78  14 2.78  16 2.78  16 2.78  14 2.78  17 2.78   1 2.82  11 2.82
                            13 2.83
  16  0.007  0.499  0.615-  17 2.78  14 2.78  15 2.78  15 2.78  14 2.78  17 2.78  11 2.82   1 2.83
                            10 2.83
  17  0.507  0.499  0.615-  16 2.78  14 2.78  15 2.78  15 2.78  14 2.78  16 2.78  10 2.82  13 2.82
                            11 2.82
  18  0.501  0.500  0.389-  19 2.78   7 2.78  21 2.78  21 2.78   7 2.78  19 2.78   8 2.82  20 2.82
                             9 2.83
  19  0.001  0.500  0.389-  18 2.78   7 2.78  21 2.78  21 2.78   7 2.78  18 2.78   9 2.82  12 2.82
                             8 2.83
  20  0.669  0.167  0.465-   8 2.78   9 2.78  12 2.78  12 2.78   9 2.78   8 2.78  11 2.80   1 2.80
                            10 2.80  21 2.82  18 2.82   7 2.83
  21  0.001  0.000  0.389-  19 2.78   7 2.78  18 2.78  18 2.78   7 2.78  19 2.78  20 2.82   8 2.82
                            12 2.83
 
  LATTYP: Found a hexagonal cell.
 ALAT       =     5.5578593001
 C/A-ratio  =     5.5429542221
  
  Lattice vectors:
  
 A1 = (   2.7789296501,  -4.8132473446,   0.0000000000)
 A2 = (  -5.5578593001,   0.0000000000,   0.0000000000)
 A3 = (   0.0000000000,   0.0000000000, -30.8069596737)


Analysis of symmetry for initial positions (statically):
=====================================================================
 Subroutine PRICEL returns:
 Original cell was already a primitive cell.
 

 Routine SETGRP: Setting up the symmetry group for a 
 hexagonal supercell.


 Subroutine GETGRP returns: Found  1 space group operations
 (whereof  1 operations were pure point group operations)
 out of a pool of 24 trial point group operations.


The static configuration has the point symmetry C_1 .


Analysis of symmetry for dynamics (positions and initial velocities):
=====================================================================
 Subroutine PRICEL returns:
 Original cell was already a primitive cell.
 

 Routine SETGRP: Setting up the symmetry group for a 
 hexagonal supercell.


 Subroutine GETGRP returns: Found  1 space group operations
 (whereof  1 operations were pure point group operations)
 out of a pool of 24 trial point group operations.


The dynamic configuration has the point symmetry C_1 .


 Subroutine INISYM returns: Found  1 space group operations
 (whereof  1 operations are pure point group operations),
 and found     1 'primitive' translations

 
 
 KPOINTS: 0.5.Ir1.Au10                            

Automatic generation of k-mesh.
Space group operators:
 irot       det(A)        alpha          n_x          n_y          n_z        tau_x        tau_y        tau_z
    1     1.000000     0.000001     1.000000     0.000000     0.000000     0.000000     0.000000     0.000000
 
 Subroutine IBZKPT returns following result:
 ===========================================
 
 Found     96 irreducible k-points:
 
 Following reciprocal coordinates:
            Coordinates               Weight
  0.062500  0.062500  0.000000     16.000000
  0.000000  0.062500  0.000000     16.000000
 -0.062500  0.000000  0.000000     16.000000
  0.187500  0.062500  0.000000     16.000000
  0.125000  0.187500  0.000000     16.000000
 -0.062500  0.125000  0.000000     16.000000
  0.125000 -0.062500  0.000000     16.000000
 -0.062500 -0.187500  0.000000     16.000000
 -0.187500 -0.125000  0.000000     16.000000
  0.312500  0.062500  0.000000     16.000000
  0.250000  0.312500  0.000000     16.000000
 -0.062500  0.250000  0.000000     16.000000
  0.250000 -0.062500  0.000000     16.000000
 -0.062500 -0.312500  0.000000     16.000000
 -0.312500 -0.250000  0.000000     16.000000
  0.437500  0.062500  0.000000     16.000000
  0.375000  0.437500  0.000000     16.000000
 -0.062500  0.375000  0.000000     16.000000
  0.375000 -0.062500  0.000000     16.000000
 -0.062500 -0.437500  0.000000     16.000000
 -0.437500 -0.375000  0.000000     16.000000
 -0.437500  0.062500  0.000000     16.000000
  0.500000 -0.437500  0.000000     16.000000
 -0.062500  0.500000  0.000000     16.000000
  0.500000 -0.062500  0.000000     16.000000
 -0.062500  0.437500  0.000000     16.000000
  0.437500  0.500000  0.000000     16.000000
 -0.312500  0.062500  0.000000     16.000000
 -0.375000 -0.312500  0.000000     16.000000
 -0.062500 -0.375000  0.000000     16.000000
 -0.375000 -0.062500  0.000000     16.000000
 -0.062500  0.312500  0.000000     16.000000
  0.312500  0.375000  0.000000     16.000000
 -0.187500  0.062500  0.000000     16.000000
 -0.250000 -0.187500  0.000000     16.000000
 -0.062500 -0.250000  0.000000     16.000000
 -0.250000 -0.062500  0.000000     16.000000
 -0.062500  0.187500  0.000000     16.000000
  0.187500  0.250000  0.000000     16.000000
 -0.062500  0.062500  0.000000     16.000000
 -0.125000 -0.062500  0.000000     16.000000
 -0.062500 -0.125000  0.000000     16.000000
  0.187500  0.187500  0.000000     16.000000
  0.000000  0.187500  0.000000     16.000000
 -0.187500  0.000000  0.000000     16.000000
  0.312500  0.187500  0.000000     16.000000
  0.125000  0.312500  0.000000     16.000000
 -0.187500  0.125000  0.000000     16.000000
  0.125000 -0.187500  0.000000     16.000000
 -0.187500 -0.312500  0.000000     16.000000
 -0.312500 -0.125000  0.000000     16.000000
  0.437500  0.187500  0.000000     16.000000
  0.250000  0.437500  0.000000     16.000000
 -0.187500  0.250000  0.000000     16.000000
  0.250000 -0.187500  0.000000     16.000000
 -0.187500 -0.437500  0.000000     16.000000
 -0.437500 -0.250000  0.000000     16.000000
 -0.437500  0.187500  0.000000     16.000000
  0.375000 -0.437500  0.000000     16.000000
 -0.187500  0.375000  0.000000     16.000000
  0.375000 -0.187500  0.000000     16.000000
 -0.187500  0.437500  0.000000     16.000000
  0.437500 -0.375000  0.000000     16.000000
 -0.312500  0.187500  0.000000     16.000000
  0.500000 -0.312500  0.000000     16.000000
 -0.187500  0.500000  0.000000     16.000000
  0.500000 -0.187500  0.000000     16.000000
 -0.187500  0.312500  0.000000     16.000000
  0.312500  0.500000  0.000000     16.000000
 -0.187500  0.187500  0.000000     16.000000
 -0.375000 -0.187500  0.000000     16.000000
 -0.187500 -0.375000  0.000000     16.000000
  0.312500  0.312500  0.000000     16.000000
  0.000000  0.312500  0.000000     16.000000
 -0.312500  0.000000  0.000000     16.000000
  0.437500  0.312500  0.000000     16.000000
  0.125000  0.437500  0.000000     16.000000
 -0.312500  0.125000  0.000000     16.000000
  0.125000 -0.312500  0.000000     16.000000
 -0.312500 -0.437500  0.000000     16.000000
 -0.437500 -0.125000  0.000000     16.000000
 -0.437500  0.312500  0.000000     16.000000
  0.250000 -0.437500  0.000000     16.000000
 -0.312500  0.250000  0.000000     16.000000
  0.250000 -0.312500  0.000000     16.000000
 -0.312500  0.437500  0.000000     16.000000
  0.437500 -0.250000  0.000000     16.000000
 -0.312500  0.312500  0.000000     16.000000
  0.375000 -0.312500  0.000000     16.000000
 -0.312500  0.375000  0.000000     16.000000
  0.437500  0.437500  0.000000     16.000000
  0.000000  0.437500  0.000000     16.000000
 -0.437500 -0.000000  0.000000     16.000000
 -0.437500  0.437500  0.000000     16.000000
  0.125000 -0.437500  0.000000     16.000000
 -0.437500  0.125000  0.000000     16.000000
 
 Following cartesian coordinates:
            Coordinates               Weight
  0.011245  0.006492  0.000000     16.000000
  0.000000  0.012985  0.000000     16.000000
 -0.011245  0.006492  0.000000     16.000000
  0.033736 -0.006492  0.000000     16.000000
  0.022491  0.025970  0.000000     16.000000
 -0.011245  0.032462  0.000000     16.000000
  0.022491 -0.025970  0.000000     16.000000
 -0.011245 -0.032462  0.000000     16.000000
 -0.033736 -0.006492  0.000000     16.000000
  0.056227 -0.019477  0.000000     16.000000
  0.044981  0.038955  0.000000     16.000000
 -0.011245  0.058432  0.000000     16.000000
  0.044981 -0.038955  0.000000     16.000000
 -0.011245 -0.058432  0.000000     16.000000
 -0.056227 -0.019477  0.000000     16.000000
  0.078717 -0.032462  0.000000     16.000000
  0.067472  0.051940  0.000000     16.000000
 -0.011245  0.084402  0.000000     16.000000
  0.067472 -0.051940  0.000000     16.000000
 -0.011245 -0.084402  0.000000     16.000000
 -0.078717 -0.032462  0.000000     16.000000
 -0.078717  0.058432  0.000000     16.000000
  0.089963 -0.142835  0.000000     16.000000
 -0.011245  0.110372  0.000000     16.000000
  0.089963 -0.064925  0.000000     16.000000
 -0.011245  0.097387  0.000000     16.000000
  0.078717  0.058432  0.000000     16.000000
 -0.056227  0.045447  0.000000     16.000000
 -0.067472 -0.025970  0.000000     16.000000
 -0.011245 -0.071417  0.000000     16.000000
 -0.067472  0.025970  0.000000     16.000000
 -0.011245  0.071417  0.000000     16.000000
  0.056227  0.045447  0.000000     16.000000
 -0.033736  0.032462  0.000000     16.000000
 -0.044981 -0.012985  0.000000     16.000000
 -0.011245 -0.045447  0.000000     16.000000
 -0.044981  0.012985  0.000000     16.000000
 -0.011245  0.045447  0.000000     16.000000
  0.033736  0.032462  0.000000     16.000000
 -0.011245  0.019477  0.000000     16.000000
 -0.022491  0.000000  0.000000     16.000000
 -0.011245 -0.019477  0.000000     16.000000
  0.033736  0.019477  0.000000     16.000000
  0.000000  0.038955  0.000000     16.000000
 -0.033736  0.019477  0.000000     16.000000
  0.056227  0.006492  0.000000     16.000000
  0.022491  0.051940  0.000000     16.000000
 -0.033736  0.045447  0.000000     16.000000
  0.022491 -0.051940  0.000000     16.000000
 -0.033736 -0.045447  0.000000     16.000000
 -0.056227  0.006492  0.000000     16.000000
  0.078717 -0.006492  0.000000     16.000000
  0.044981  0.064925  0.000000     16.000000
 -0.033736  0.071417  0.000000     16.000000
  0.044981 -0.064925  0.000000     16.000000
 -0.033736 -0.071417  0.000000     16.000000
 -0.078717 -0.006492  0.000000     16.000000
 -0.078717  0.084402  0.000000     16.000000
  0.067472 -0.129850  0.000000     16.000000
 -0.033736  0.097387  0.000000     16.000000
  0.067472 -0.077910  0.000000     16.000000
 -0.033736  0.110372  0.000000     16.000000
  0.078717 -0.123357  0.000000     16.000000
 -0.056227  0.071417  0.000000     16.000000
  0.089963 -0.116865  0.000000     16.000000
 -0.033736  0.123357  0.000000     16.000000
  0.089963 -0.090895  0.000000     16.000000
 -0.033736  0.084402  0.000000     16.000000
  0.056227  0.071417  0.000000     16.000000
 -0.033736  0.058432  0.000000     16.000000
 -0.067472  0.000000  0.000000     16.000000
 -0.033736 -0.058432  0.000000     16.000000
  0.056227  0.032462  0.000000     16.000000
  0.000000  0.064925  0.000000     16.000000
 -0.056227  0.032462  0.000000     16.000000
  0.078717  0.019477  0.000000     16.000000
  0.022491  0.077910  0.000000     16.000000
 -0.056227  0.058432  0.000000     16.000000
  0.022491 -0.077910  0.000000     16.000000
 -0.056227 -0.058432  0.000000     16.000000
 -0.078717  0.019477  0.000000     16.000000
 -0.078717  0.110372  0.000000     16.000000
  0.044981 -0.116865  0.000000     16.000000
 -0.056227  0.084402  0.000000     16.000000
  0.044981 -0.090895  0.000000     16.000000
 -0.056227  0.123357  0.000000     16.000000
  0.078717 -0.097387  0.000000     16.000000
 -0.056227  0.097387  0.000000     16.000000
  0.067472 -0.103880  0.000000     16.000000
 -0.056227  0.110372  0.000000     16.000000
  0.078717  0.045447  0.000000     16.000000
  0.000000  0.090895  0.000000     16.000000
 -0.078717  0.045447  0.000000     16.000000
 -0.078717  0.136342  0.000000     16.000000
  0.022491 -0.103880  0.000000     16.000000
 -0.078717  0.071417  0.000000     16.000000
 


--------------------------------------------------------------------------------------------------------




 Dimension of arrays:
   k-points           NKPTS =     96   k-points in BZ     NKDIM =     96   number of bands    NBANDS=    100
   number of dos      NEDOS =    301   number of ions     NIONS =     21
   non local maximal  LDIM  =      6   non local SUM 2l+1 LMDIM =     18
   total plane-waves  NPLWV = 112896
   max r-space proj   IRMAX =   2252   max aug-charges    IRDMAX=  10104
   dimension x,y,z NGX =    28 NGY =   28 NGZ =  144
   dimension x,y,z NGXF=    56 NGYF=   56 NGZF=  288
   support grid    NGXF=    56 NGYF=   56 NGZF=  288
   ions per type =               1   1   4   1  14
   NGX,Y,Z   is equivalent  to a cutoff of   8.38,  8.38,  7.77 a.u.
   NGXF,Y,Z  is equivalent  to a cutoff of  16.75, 16.75, 15.54 a.u.

 SYSTEM =  0.5.Ir1.Au10                            
 POSCAR =  Au  C  H Ir Pt                          

 Startparameter for this run:
   NWRITE =      2    write-flag & timer
   PREC   = normal    normal or accurate (medium, high low for compatibility)
   ISTART =      0    job   : 0-new  1-cont  2-samecut
   ICHARG =      2    charge: 1-file 2-atom 10-const
   ISPIN  =      1    spin polarized calculation?
   LNONCOLLINEAR =      F non collinear calculations
   LSORBIT =      F    spin-orbit coupling
   INIWAV =      1    electr: 0-lowe 1-rand  2-diag
   LASPH  =      F    aspherical Exc in radial PAW
   METAGGA=      F    non-selfconsistent MetaGGA calc.

 Electronic Relaxation 1
   ENCUT  =  350.0 eV  25.72 Ry    5.07 a.u.   8.48  8.48 46.99*2*pi/ulx,y,z
   ENINI  =  350.0     initial cutoff
   ENAUG  =  644.9 eV  augmentation charge cutoff
   NELM   =   1000;   NELMIN=  5; NELMDL= -5     # of ELM steps 
   EDIFF  = 0.1E-04   stopping-criterion for ELM
   LREAL  =      T    real-space projection
   NLSPLINE    = F    spline interpolate recip. space projectors
   LCOMPAT=      F    compatible to vasp.4.4
   GGA_COMPAT  = T    GGA compatible to vasp.4.4-vasp.4.6
   LMAXPAW     = -100 max onsite density
   LMAXMIX     =    2 max onsite mixed and CHGCAR
   VOSKOWN=      0    Vosko Wilk Nusair interpolation
   ROPT   =   -0.00050  -0.00050  -0.00050  -0.00050
   ROPT   =   -0.00050
 Ionic relaxation
   EDIFFG = 0.1E-03   stopping-criterion for IOM
   NSW    =      0    number of steps for IOM
   NBLOCK =      1;   KBLOCK =      1    inner block; outer block 
   IBRION =     -1    ionic relax: 0-MD 1-quasi-New 2-CG
   NFREE  =      0    steps in history (QN), initial steepest desc. (CG)
   ISIF   =      2    stress and relaxation
   IWAVPR =     10    prediction:  0-non 1-charg 2-wave 3-comb
   ISYM   =      2    0-nonsym 1-usesym 2-fastsym
   LCORR  =      T    Harris-Foulkes like correction to forces

   POTIM  = 0.5000    time-step for ionic-motion
   TEIN   =    0.0    initial temperature
   TEBEG  =    0.0;   TEEND  =   0.0 temperature during run
   SMASS  =  -3.00    Nose mass-parameter (am)
   estimated Nose-frequenzy (Omega)   =  0.10E-29 period in steps =****** mass=  -0.706E-27a.u.
   SCALEE = 1.0000    scale energy and forces
   NPACO  =    256;   APACO  = 16.0  distance and # of slots for P.C.
   PSTRESS=    0.0 pullay stress

  Mass of Ions in am
   POMASS = 196.97 12.01  1.00192.22195.08
  Ionic Valenz
   ZVAL   =  11.00  4.00  1.00  9.00 10.00
  Atomic Wigner-Seitz radii
   RWIGS  =  -1.00 -1.00 -1.00 -1.00 -1.00
  virtual crystal weights 
   VCA    =   1.00  1.00  1.00  1.00  1.00
   NELECT =     168.0000    total number of electrons
   NUPDOWN=      -1.0000    fix difference up-down

 DOS related values:
   EMIN   =  10.00;   EMAX   =-10.00  energy-range for DOS
   EFERMI =   0.00
   ISMEAR =     1;   SIGMA  =   0.20  broadening in eV -4-tet -1-fermi 0-gaus

 Electronic relaxation 2 (details)
   IALGO  =     38    algorithm
   LDIAG  =      T    sub-space diagonalisation (order eigenvalues)
   LSUBROT=      F    optimize rotation matrix (better conditioning)
   TURBO    =      0    0=normal 1=particle mesh
   IRESTART =      0    0=no restart 2=restart with 2 vectors
   NREBOOT  =      0    no. of reboots
   NMIN     =      0    reboot dimension
   EREF     =   0.00    reference energy to select bands
   IMIX   =      4    mixing-type and parameters
     AMIX     =   0.40;   BMIX     =  1.00
     AMIX_MAG =   1.60;   BMIX_MAG =  1.00
     AMIN     =   0.10
     WC   =   100.;   INIMIX=   1;  MIXPRE=   1;  MAXMIX= -45

 Intra band minimization:
   WEIMIN = 0.0000     energy-eigenvalue tresh-hold
   EBREAK =  0.25E-07  absolut break condition
   DEPER  =   0.30     relativ break condition  

   TIME   =   0.40     timestep for ELM

  volume/ion in A,a.u.               =      39.24       264.83
  Fermi-wavevector in a.u.,A,eV,Ry     =   0.963488  1.820729 12.630418  0.928310
  Thomas-Fermi vector in A             =   2.093038
 
 Write flags
   LWAVE        =      F    write WAVECAR
   LDOWNSAMPLE  =      F    k-point downsampling of WAVECAR
   LCHARG       =      F    write CHGCAR
   LVTOT        =      F    write LOCPOT, total local potential
   LVHAR        =      F    write LOCPOT, Hartree potential only
   LELF         =      F    write electronic localiz. function (ELF)
   LORBIT       =      0    0 simple, 1 ext, 2 COOP (PROOUT), +10 PAW based schemes


 Dipole corrections
   LMONO  =      F    monopole corrections only (constant potential shift)
   LDIPOL =      F    correct potential (dipole corrections)
   IDIPOL =      3    1-x, 2-y, 3-z, 4-all directions 
   EPSILON=  1.0000000 bulk dielectric constant

 Exchange correlation treatment:
   GGA     =    --    GGA type
   LEXCH   =     8    internal setting for exchange type
   VOSKOWN=      0    Vosko Wilk Nusair interpolation
   LHFCALC =     F    Hartree Fock is set to
   LHFONE  =     F    Hartree Fock one center treatment
   AEXX    =    0.0000 exact exchange contribution

 Linear response parameters
   LEPSILON=     F    determine dielectric tensor
   LRPA    =     F    only Hartree local field effects (RPA)
   LNABLA  =     F    use nabla operator in PAW spheres
   LVEL    =     F    velocity operator in full k-point grid
   LINTERFAST=   F  fast interpolation
   KINTER  =     0    interpolate to denser k-point grid
   CSHIFT  =0.1000    complex shift for real part using Kramers Kronig
   OMEGAMAX=  -1.0    maximum frequency
   DEG_THRESHOLD= 0.2000000E-02 threshold for treating states as degnerate
   RTIME   =   -0.100 relaxation time in fs
  (WPLASMAI=    0.000 imaginary part of plasma frequency in eV, 0.658/RTIME)
   DFIELD  = 0.0000000 0.0000000 0.0000000 field for delta impulse in time
 
 Orbital magnetization related:
   ORBITALMAG=     F  switch on orbital magnetization
   LCHIMAG   =     F  perturbation theory with respect to B field
   DQ        =  0.001000  dq finite difference perturbation B field
   LLRAUG    =     F  two centre corrections for induced B field



--------------------------------------------------------------------------------------------------------


 Static calculation
 charge density and potential will be updated during run
 non-spin polarized calculation
 Variant of blocked Davidson
 Davidson routine will perform the subspace rotation
 perform sub-space diagonalisation
    after iterative eigenvector-optimisation
 modified Broyden-mixing scheme, WC =      100.0
 initial mixing is a Kerker type mixing with AMIX =  0.4000 and BMIX =      1.0000
 Hartree-type preconditioning will be used
 using additional bands           16
 real space projection scheme for non local part
 use partial core corrections
 calculate Harris-corrections to forces 
   (improved forces if not selfconsistent)
 use gradient corrections 
 use of overlap-Matrix (Vanderbilt PP)
 Methfessel and Paxton  Order N= 1 SIGMA  =   0.20


--------------------------------------------------------------------------------------------------------


  energy-cutoff  :      350.00
  volume of cell :      824.13
      direct lattice vectors                 reciprocal lattice vectors
     5.557859300  0.000000000  0.000000000     0.179925390 -0.103879972  0.000000000
     2.778929650  4.813247345  0.000000000     0.000000000  0.207759944  0.000000000
     0.000000000  0.000000000 30.806959674     0.000000000  0.000000000  0.032460198

  length of vectors
     5.557859300  5.557859300 30.806959674     0.207759944  0.207759944  0.032460198


 
 k-points in units of 2pi/SCALE and weight: 0.5.Ir1.Au10                            
   0.01124534  0.00649250  0.00000000       0.010
   0.00000000  0.01298500  0.00000000       0.010
  -0.01124534  0.00649250  0.00000000       0.010
   0.03373601 -0.00649250  0.00000000       0.010
   0.02249067  0.02596999  0.00000000       0.010
  -0.01124534  0.03246249  0.00000000       0.010
   0.02249067 -0.02596999  0.00000000       0.010
  -0.01124534 -0.03246249  0.00000000       0.010
  -0.03373601 -0.00649250  0.00000000       0.010
   0.05622668 -0.01947749  0.00000000       0.010
   0.04498135  0.03895499  0.00000000       0.010
  -0.01124534  0.05843248  0.00000000       0.010
   0.04498135 -0.03895499  0.00000000       0.010
  -0.01124534 -0.05843248  0.00000000       0.010
  -0.05622668 -0.01947749  0.00000000       0.010
   0.07871736 -0.03246249  0.00000000       0.010
   0.06747202  0.05193999  0.00000000       0.010
  -0.01124534  0.08440248  0.00000000       0.010
   0.06747202 -0.05193999  0.00000000       0.010
  -0.01124534 -0.08440248  0.00000000       0.010
  -0.07871736 -0.03246249  0.00000000       0.010
  -0.07871736  0.05843248  0.00000000       0.010
   0.08996269 -0.14283496  0.00000000       0.010
  -0.01124534  0.11037247  0.00000000       0.010
   0.08996269 -0.06492498  0.00000000       0.010
  -0.01124534  0.09738747  0.00000000       0.010
   0.07871736  0.05843248  0.00000000       0.010
  -0.05622668  0.04544749  0.00000000       0.010
  -0.06747202 -0.02596999  0.00000000       0.010
  -0.01124534 -0.07141748  0.00000000       0.010
  -0.06747202  0.02596999  0.00000000       0.010
  -0.01124534  0.07141748  0.00000000       0.010
   0.05622668  0.04544749  0.00000000       0.010
  -0.03373601  0.03246249  0.00000000       0.010
  -0.04498135 -0.01298500  0.00000000       0.010
  -0.01124534 -0.04544749  0.00000000       0.010
  -0.04498135  0.01298500  0.00000000       0.010
  -0.01124534  0.04544749  0.00000000       0.010
   0.03373601  0.03246249  0.00000000       0.010
  -0.01124534  0.01947749  0.00000000       0.010
  -0.02249067  0.00000000  0.00000000       0.010
  -0.01124534 -0.01947749  0.00000000       0.010
   0.03373601  0.01947749  0.00000000       0.010
   0.00000000  0.03895499  0.00000000       0.010
  -0.03373601  0.01947749  0.00000000       0.010
   0.05622668  0.00649250  0.00000000       0.010
   0.02249067  0.05193999  0.00000000       0.010
  -0.03373601  0.04544749  0.00000000       0.010
   0.02249067 -0.05193999  0.00000000       0.010
  -0.03373601 -0.04544749  0.00000000       0.010
  -0.05622668  0.00649250  0.00000000       0.010
   0.07871736 -0.00649250  0.00000000       0.010
   0.04498135  0.06492498  0.00000000       0.010
  -0.03373601  0.07141748  0.00000000       0.010
   0.04498135 -0.06492498  0.00000000       0.010
  -0.03373601 -0.07141748  0.00000000       0.010
  -0.07871736 -0.00649250  0.00000000       0.010
  -0.07871736  0.08440248  0.00000000       0.010
   0.06747202 -0.12984997  0.00000000       0.010
  -0.03373601  0.09738747  0.00000000       0.010
   0.06747202 -0.07790998  0.00000000       0.010
  -0.03373601  0.11037247  0.00000000       0.010
   0.07871736 -0.12335747  0.00000000       0.010
  -0.05622668  0.07141748  0.00000000       0.010
   0.08996269 -0.11686497  0.00000000       0.010
  -0.03373601  0.12335747  0.00000000       0.010
   0.08996269 -0.09089498  0.00000000       0.010
  -0.03373601  0.08440248  0.00000000       0.010
   0.05622668  0.07141748  0.00000000       0.010
  -0.03373601  0.05843248  0.00000000       0.010
  -0.06747202  0.00000000  0.00000000       0.010
  -0.03373601 -0.05843248  0.00000000       0.010
   0.05622668  0.03246249  0.00000000       0.010
   0.00000000  0.06492498  0.00000000       0.010
  -0.05622668  0.03246249  0.00000000       0.010
   0.07871736  0.01947749  0.00000000       0.010
   0.02249067  0.07790998  0.00000000       0.010
  -0.05622668  0.05843248  0.00000000       0.010
   0.02249067 -0.07790998  0.00000000       0.010
  -0.05622668 -0.05843248  0.00000000       0.010
  -0.07871736  0.01947749  0.00000000       0.010
  -0.07871736  0.11037247  0.00000000       0.010
   0.04498135 -0.11686497  0.00000000       0.010
  -0.05622668  0.08440248  0.00000000       0.010
   0.04498135 -0.09089498  0.00000000       0.010
  -0.05622668  0.12335747  0.00000000       0.010
   0.07871736 -0.09738747  0.00000000       0.010
  -0.05622668  0.09738747  0.00000000       0.010
   0.06747202 -0.10387997  0.00000000       0.010
  -0.05622668  0.11037247  0.00000000       0.010
   0.07871736  0.04544749  0.00000000       0.010
   0.00000000  0.09089498  0.00000000       0.010
  -0.07871736  0.04544749  0.00000000       0.010
  -0.07871736  0.13634246  0.00000000       0.010
   0.02249067 -0.10387997  0.00000000       0.010
  -0.07871736  0.07141748  0.00000000       0.010
 
 k-points in reciprocal lattice and weights: 0.5.Ir1.Au10                            
   0.06250000  0.06250000  0.00000000       0.010
   0.00000000  0.06250000  0.00000000       0.010
  -0.06250000  0.00000000  0.00000000       0.010
   0.18750000  0.06250000  0.00000000       0.010
   0.12500000  0.18750000  0.00000000       0.010
  -0.06250000  0.12500000  0.00000000       0.010
   0.12500000 -0.06250000  0.00000000       0.010
  -0.06250000 -0.18750000  0.00000000       0.010
  -0.18750000 -0.12500000  0.00000000       0.010
   0.31250000  0.06250000  0.00000000       0.010
   0.25000000  0.31250000  0.00000000       0.010
  -0.06250000  0.25000000  0.00000000       0.010
   0.25000000 -0.06250000  0.00000000       0.010
  -0.06250000 -0.31250000  0.00000000       0.010
  -0.31250000 -0.25000000  0.00000000       0.010
   0.43750000  0.06250000  0.00000000       0.010
   0.37500000  0.43750000  0.00000000       0.010
  -0.06250000  0.37500000  0.00000000       0.010
   0.37500000 -0.06250000  0.00000000       0.010
  -0.06250000 -0.43750000  0.00000000       0.010
  -0.43750000 -0.37500000  0.00000000       0.010
  -0.43750000  0.06250000  0.00000000       0.010
   0.50000000 -0.43750000  0.00000000       0.010
  -0.06250000  0.50000000  0.00000000       0.010
   0.50000000 -0.06250000  0.00000000       0.010
  -0.06250000  0.43750000  0.00000000       0.010
   0.43750000  0.50000000  0.00000000       0.010
  -0.31250000  0.06250000  0.00000000       0.010
  -0.37500000 -0.31250000  0.00000000       0.010
  -0.06250000 -0.37500000  0.00000000       0.010
  -0.37500000 -0.06250000  0.00000000       0.010
  -0.06250000  0.31250000  0.00000000       0.010
   0.31250000  0.37500000  0.00000000       0.010
  -0.18750000  0.06250000  0.00000000       0.010
  -0.25000000 -0.18750000  0.00000000       0.010
  -0.06250000 -0.25000000  0.00000000       0.010
  -0.25000000 -0.06250000  0.00000000       0.010
  -0.06250000  0.18750000  0.00000000       0.010
   0.18750000  0.25000000  0.00000000       0.010
  -0.06250000  0.06250000  0.00000000       0.010
  -0.12500000 -0.06250000  0.00000000       0.010
  -0.06250000 -0.12500000  0.00000000       0.010
   0.18750000  0.18750000  0.00000000       0.010
   0.00000000  0.18750000  0.00000000       0.010
  -0.18750000  0.00000000  0.00000000       0.010
   0.31250000  0.18750000  0.00000000       0.010
   0.12500000  0.31250000  0.00000000       0.010
  -0.18750000  0.12500000  0.00000000       0.010
   0.12500000 -0.18750000  0.00000000       0.010
  -0.18750000 -0.31250000  0.00000000       0.010
  -0.31250000 -0.12500000  0.00000000       0.010
   0.43750000  0.18750000  0.00000000       0.010
   0.25000000  0.43750000  0.00000000       0.010
  -0.18750000  0.25000000  0.00000000       0.010
   0.25000000 -0.18750000  0.00000000       0.010
  -0.18750000 -0.43750000  0.00000000       0.010
  -0.43750000 -0.25000000  0.00000000       0.010
  -0.43750000  0.18750000  0.00000000       0.010
   0.37500000 -0.43750000  0.00000000       0.010
  -0.18750000  0.37500000  0.00000000       0.010
   0.37500000 -0.18750000  0.00000000       0.010
  -0.18750000  0.43750000  0.00000000       0.010
   0.43750000 -0.37500000  0.00000000       0.010
  -0.31250000  0.18750000  0.00000000       0.010
   0.50000000 -0.31250000  0.00000000       0.010
  -0.18750000  0.50000000  0.00000000       0.010
   0.50000000 -0.18750000  0.00000000       0.010
  -0.18750000  0.31250000  0.00000000       0.010
   0.31250000  0.50000000  0.00000000       0.010
  -0.18750000  0.18750000  0.00000000       0.010
  -0.37500000 -0.18750000  0.00000000       0.010
  -0.18750000 -0.37500000  0.00000000       0.010
   0.31250000  0.31250000  0.00000000       0.010
   0.00000000  0.31250000  0.00000000       0.010
  -0.31250000  0.00000000  0.00000000       0.010
   0.43750000  0.31250000  0.00000000       0.010
   0.12500000  0.43750000  0.00000000       0.010
  -0.31250000  0.12500000  0.00000000       0.010
   0.12500000 -0.31250000  0.00000000       0.010
  -0.31250000 -0.43750000  0.00000000       0.010
  -0.43750000 -0.12500000  0.00000000       0.010
  -0.43750000  0.31250000  0.00000000       0.010
   0.25000000 -0.43750000  0.00000000       0.010
  -0.31250000  0.25000000  0.00000000       0.010
   0.25000000 -0.31250000  0.00000000       0.010
  -0.31250000  0.43750000  0.00000000       0.010
   0.43750000 -0.25000000  0.00000000       0.010
  -0.31250000  0.31250000  0.00000000       0.010
   0.37500000 -0.31250000  0.00000000       0.010
  -0.31250000  0.37500000  0.00000000       0.010
   0.43750000  0.43750000  0.00000000       0.010
   0.00000000  0.43750000  0.00000000       0.010
  -0.43750000 -0.00000000  0.00000000       0.010
  -0.43750000  0.43750000  0.00000000       0.010
   0.12500000 -0.43750000  0.00000000       0.010
  -0.43750000  0.12500000  0.00000000       0.010
 
 position of ions in fractional coordinates (direct lattice) 
   0.83817719  0.83290296  0.53926163
   0.00008607  0.04501296  0.72044772
   0.84389545  0.18528001  0.74392310
   0.92868738  0.91198604  0.70539745
   0.20134964  0.91422738  0.73635803
   0.02564635  0.17134776  0.69517879
   0.50070409  0.00004730  0.38941342
   0.16932217  0.66652976  0.46479534
   0.66927312  0.66664633  0.46492544
   0.83813976  0.33294392  0.53925176
   0.33824268  0.33278195  0.53937141
   0.16928597  0.16657958  0.46481641
   0.33815951  0.83289274  0.53927158
   0.00696994  0.99907824  0.61442806
   0.50702230  0.99917167  0.61472576
   0.00704958  0.49924184  0.61471431
   0.50668248  0.49919976  0.61467685
   0.50074456  0.50027167  0.38940634
   0.00051655  0.50023037  0.38941823
   0.66926822  0.16659852  0.46478785
   0.00066605  0.00019711  0.38936341
 
 position of ions in cartesian coordinates  (Angst):
   6.97304959  4.00896794 16.61301121
   0.12556623  0.21665853 22.19480377
   5.20513230  0.89179854 22.91800889
   7.69585881  4.38961439 21.73115082
   3.65964655  4.40040249 22.68495215
   0.61870221  0.82473917 21.41634489
   2.78297436  0.00022769 11.99664354
   2.79330812  3.20817259 14.31893122
   5.57228906  3.20873367 14.32293920
   5.58349061  1.60254142 16.61270711
   2.80468286  1.60176186 16.61639338
   1.40378052  0.80178871 14.31958051
   4.19399333  4.00891877 16.61331786
   2.81510610  4.80881071 18.92866049
   5.59458639  4.80926037 18.93783179
   1.42653851  2.40297446 18.93747893
   4.20331093  2.40277190 18.93632493
   4.17328758  2.40793129 11.99642543
   1.39297592  2.40773250 11.99679172
   4.18266418  0.80187990 14.31870053
   0.00424956  0.00094874 11.99510299
 


--------------------------------------------------------------------------------------------------------


 k-point  1 :   0.0625 0.0625 0.0000  plane waves:   12325
 k-point  2 :   0.0000 0.0625 0.0000  plane waves:   12325
 k-point  3 :  -0.0625 0.0000 0.0000  plane waves:   12325
 k-point  4 :   0.1875 0.0625 0.0000  plane waves:   12294
 k-point  5 :   0.1250 0.1875 0.0000  plane waves:   12294
 k-point  6 :  -0.0625 0.1250 0.0000  plane waves:   12294
 k-point  7 :   0.1250-0.0625 0.0000  plane waves:   12294
 k-point  8 :  -0.0625-0.1875 0.0000  plane waves:   12294
 k-point  9 :  -0.1875-0.1250 0.0000  plane waves:   12294
 k-point 10 :   0.3125 0.0625 0.0000  plane waves:   12263
 k-point 11 :   0.2500 0.3125 0.0000  plane waves:   12263
 k-point 12 :  -0.0625 0.2500 0.0000  plane waves:   12263
 k-point 13 :   0.2500-0.0625 0.0000  plane waves:   12263
 k-point 14 :  -0.0625-0.3125 0.0000  plane waves:   12263
 k-point 15 :  -0.3125-0.2500 0.0000  plane waves:   12263
 k-point 16 :   0.4375 0.0625 0.0000  plane waves:   12221
 k-point 17 :   0.3750 0.4375 0.0000  plane waves:   12221
 k-point 18 :  -0.0625 0.3750 0.0000  plane waves:   12221
 k-point 19 :   0.3750-0.0625 0.0000  plane waves:   12221
 k-point 20 :  -0.0625-0.4375 0.0000  plane waves:   12221
 k-point 21 :  -0.4375-0.3750 0.0000  plane waves:   12221
 k-point 22 :  -0.4375 0.0625 0.0000  plane waves:   12211
 k-point 23 :   0.5000-0.4375 0.0000  plane waves:   12211
 k-point 24 :  -0.0625 0.5000 0.0000  plane waves:   12211
 k-point 25 :   0.5000-0.0625 0.0000  plane waves:   12211
 k-point 26 :  -0.0625 0.4375 0.0000  plane waves:   12211
 k-point 27 :   0.4375 0.5000 0.0000  plane waves:   12211
 k-point 28 :  -0.3125 0.0625 0.0000  plane waves:   12242
 k-point 29 :  -0.3750-0.3125 0.0000  plane waves:   12242
 k-point 30 :  -0.0625-0.3750 0.0000  plane waves:   12242
 k-point 31 :  -0.3750-0.0625 0.0000  plane waves:   12242
 k-point 32 :  -0.0625 0.3125 0.0000  plane waves:   12242
 k-point 33 :   0.3125 0.3750 0.0000  plane waves:   12242
 k-point 34 :  -0.1875 0.0625 0.0000  plane waves:   12280
 k-point 35 :  -0.2500-0.1875 0.0000  plane waves:   12280
 k-point 36 :  -0.0625-0.2500 0.0000  plane waves:   12280
 k-point 37 :  -0.2500-0.0625 0.0000  plane waves:   12280
 k-point 38 :  -0.0625 0.1875 0.0000  plane waves:   12280
 k-point 39 :   0.1875 0.2500 0.0000  plane waves:   12280
 k-point 40 :  -0.0625 0.0625 0.0000  plane waves:   12329
 k-point 41 :  -0.1250-0.0625 0.0000  plane waves:   12329
 k-point 42 :  -0.0625-0.1250 0.0000  plane waves:   12329
 k-point 43 :   0.1875 0.1875 0.0000  plane waves:   12277
 k-point 44 :   0.0000 0.1875 0.0000  plane waves:   12277
 k-point 45 :  -0.1875 0.0000 0.0000  plane waves:   12277
 k-point 46 :   0.3125 0.1875 0.0000  plane waves:   12288
 k-point 47 :   0.1250 0.3125 0.0000  plane waves:   12288
 k-point 48 :  -0.1875 0.1250 0.0000  plane waves:   12288
 k-point 49 :   0.1250-0.1875 0.0000  plane waves:   12288
 k-point 50 :  -0.1875-0.3125 0.0000  plane waves:   12288
 k-point 51 :  -0.3125-0.1250 0.0000  plane waves:   12288
 k-point 52 :   0.4375 0.1875 0.0000  plane waves:   12234
 k-point 53 :   0.2500 0.4375 0.0000  plane waves:   12234
 k-point 54 :  -0.1875 0.2500 0.0000  plane waves:   12234
 k-point 55 :   0.2500-0.1875 0.0000  plane waves:   12234
 k-point 56 :  -0.1875-0.4375 0.0000  plane waves:   12234
 k-point 57 :  -0.4375-0.2500 0.0000  plane waves:   12234
 k-point 58 :  -0.4375 0.1875 0.0000  plane waves:   12216
 k-point 59 :   0.3750-0.4375 0.0000  plane waves:   12216
 k-point 60 :  -0.1875 0.3750 0.0000  plane waves:   12216
 k-point 61 :   0.3750-0.1875 0.0000  plane waves:   12216
 k-point 62 :  -0.1875 0.4375 0.0000  plane waves:   12216
 k-point 63 :   0.4375-0.3750 0.0000  plane waves:   12216
 k-point 64 :  -0.3125 0.1875 0.0000  plane waves:   12215
 k-point 65 :   0.5000-0.3125 0.0000  plane waves:   12215
 k-point 66 :  -0.1875 0.5000 0.0000  plane waves:   12215
 k-point 67 :   0.5000-0.1875 0.0000  plane waves:   12215
 k-point 68 :  -0.1875 0.3125 0.0000  plane waves:   12215
 k-point 69 :   0.3125 0.5000 0.0000  plane waves:   12215
 k-point 70 :  -0.1875 0.1875 0.0000  plane waves:   12289
 k-point 71 :  -0.3750-0.1875 0.0000  plane waves:   12289
 k-point 72 :  -0.1875-0.3750 0.0000  plane waves:   12289
 k-point 73 :   0.3125 0.3125 0.0000  plane waves:   12275
 k-point 74 :   0.0000 0.3125 0.0000  plane waves:   12275
 k-point 75 :  -0.3125 0.0000 0.0000  plane waves:   12275
 k-point 76 :   0.4375 0.3125 0.0000  plane waves:   12239
 k-point 77 :   0.1250 0.4375 0.0000  plane waves:   12239
 k-point 78 :  -0.3125 0.1250 0.0000  plane waves:   12239
 k-point 79 :   0.1250-0.3125 0.0000  plane waves:   12239
 k-point 80 :  -0.3125-0.4375 0.0000  plane waves:   12239
 k-point 81 :  -0.4375-0.1250 0.0000  plane waves:   12239
 k-point 82 :  -0.4375 0.3125 0.0000  plane waves:   12235
 k-point 83 :   0.2500-0.4375 0.0000  plane waves:   12235
 k-point 84 :  -0.3125 0.2500 0.0000  plane waves:   12235
 k-point 85 :   0.2500-0.3125 0.0000  plane waves:   12235
 k-point 86 :  -0.3125 0.4375 0.0000  plane waves:   12235
 k-point 87 :   0.4375-0.2500 0.0000  plane waves:   12235
 k-point 88 :  -0.3125 0.3125 0.0000  plane waves:   12232
 k-point 89 :   0.3750-0.3125 0.0000  plane waves:   12232
 k-point 90 :  -0.3125 0.3750 0.0000  plane waves:   12232
 k-point 91 :   0.4375 0.4375 0.0000  plane waves:   12200
 k-point 92 :   0.0000 0.4375 0.0000  plane waves:   12200
 k-point 93 :  -0.4375-0.0000 0.0000  plane waves:   12200
 k-point 94 :  -0.4375 0.4375 0.0000  plane waves:   12214
 k-point 95 :   0.1250-0.4375 0.0000  plane waves:   12214
 k-point 96 :  -0.4375 0.1250 0.0000  plane waves:   12214

 maximum and minimum number of plane-waves per node :      3101     2992

 maximum number of plane-waves:     12329
 maximum index in each direction: 
   IXMAX=    8   IYMAX=    8   IZMAX=   46
   IXMIN=   -8   IYMIN=   -8   IZMIN=  -46


 real space projection operators:
  total allocation   :       5086.44 KBytes
  max/ min on nodes  :       1272.40       1271.09


 parallel 3D FFT for wavefunctions:
    minimum data exchange during FFTs selected (reduces bandwidth)
 parallel 3D FFT for charge:
    minimum data exchange during FFTs selected (reduces bandwidth)


 total amount of memory used by VASP MPI-rank0   164309. kBytes
=======================================================================

   base      :      30000. kBytes
   nonlr-proj:       2356. kBytes
   fftplans  :       2967. kBytes
   grid      :       6321. kBytes
   one-center:         93. kBytes
   wavefun   :     122572. kBytes
 
     INWAV:  cpu time    0.0000: real time    0.0000
 Broyden mixing: mesh for mixing (old mesh)
   NGX = 17   NGY = 17   NGZ = 93
  (NGX  = 56   NGY  = 56   NGZ  =288)
  gives a total of  26877 points

 initial charge density was supplied:
 charge density of overlapping atoms calculated
 number of electron     168.0000000 magnetization 
 keeping initial charge density in first step


--------------------------------------------------------------------------------------------------------


 Maximum index for non-local projection operator          540
 Maximum index for augmentation-charges          719 (set IRDMAX)


--------------------------------------------------------------------------------------------------------


 First call to EWALD:  gamma=   0.189
 Maximum number of real-space cells 5x 5x 1
 Maximum number of reciprocal cells 2x 2x 8

    FEWALD:  cpu time    0.0013: real time    0.0013


--------------------------------------- Iteration      1(   1)  ---------------------------------------


    POTLOK:  cpu time    0.0256: real time    0.0315
    SETDIJ:  cpu time    0.0035: real time    0.0035
     EDDAV:  cpu time   13.4320: real time   13.4327
       DOS:  cpu time    0.0075: real time    0.0075
    --------------------------------------------
      LOOP:  cpu time   13.4686: real time   13.4752

 eigenvalue-minimisations  : 19264
 total energy-change (2. order) : 0.1022125E+04  (-0.5823301E+04)
 number of electron     168.0000000 magnetization 
 augmentation part      168.0000000 magnetization 

 Free energy of the ion-electron system (eV)
  ---------------------------------------------------
  alpha Z        PSCENC =       324.87461712
  Ewald energy   TEWEN  =     99876.57261103
  -Hartree energ DENC   =   -112165.20944314
  -exchange      EXHF   =         0.00000000
  -V(xc)+E(xc)   XCENC  =        68.64611026
  PAW double counting   =     11288.27476651   -10829.50941267
  entropy T*S    EENTRO =         0.00465205
  eigenvalues    EBANDS =       567.83370257
  atomic energy  EATOM  =     11890.63736546
  Solvation  Ediel_sol  =         0.00000000
  ---------------------------------------------------
  free energy    TOTEN  =      1022.12496920 eV

  energy without entropy =     1022.12031715  energy(sigma->0) =     1022.12341851


--------------------------------------------------------------------------------------------------------




--------------------------------------- Iteration      1(   2)  ---------------------------------------


     EDDAV:  cpu time   15.8828: real time   15.8839
       DOS:  cpu time    0.0082: real time    0.0082
    --------------------------------------------
      LOOP:  cpu time   15.8910: real time   15.8921

 eigenvalue-minimisations  : 23876
 total energy-change (2. order) :-0.1050914E+04  (-0.9758412E+03)
 number of electron     168.0000000 magnetization 
 augmentation part      168.0000000 magnetization 

 Free energy of the ion-electron system (eV)
  ---------------------------------------------------
  alpha Z        PSCENC =       324.87461712
  Ewald energy   TEWEN  =     99876.57261103
  -Hartree energ DENC   =   -112165.20944314
  -exchange      EXHF   =         0.00000000
  -V(xc)+E(xc)   XCENC  =        68.64611026
  PAW double counting   =     11288.27476651   -10829.50941267
  entropy T*S    EENTRO =        -0.00050946
  eigenvalues    EBANDS =      -483.07556562
  atomic energy  EATOM  =     11890.63736546
  Solvation  Ediel_sol  =         0.00000000
  ---------------------------------------------------
  free energy    TOTEN  =       -28.78946050 eV

  energy without entropy =      -28.78895105  energy(sigma->0) =      -28.78929069


--------------------------------------------------------------------------------------------------------




--------------------------------------- Iteration      1(   3)  ---------------------------------------


     EDDAV:  cpu time   15.4011: real time   15.4030
       DOS:  cpu time    0.0087: real time    0.0087
    --------------------------------------------
      LOOP:  cpu time   15.4098: real time   15.4117

 eigenvalue-minimisations  : 22984
 total energy-change (2. order) :-0.9219034E+02  (-0.8515096E+02)
 number of electron     168.0000000 magnetization 
 augmentation part      168.0000000 magnetization 

 Free energy of the ion-electron system (eV)
  ---------------------------------------------------
  alpha Z        PSCENC =       324.87461712
  Ewald energy   TEWEN  =     99876.57261103
  -Hartree energ DENC   =   -112165.20944314
  -exchange      EXHF   =         0.00000000
  -V(xc)+E(xc)   XCENC  =        68.64611026
  PAW double counting   =     11288.27476651   -10829.50941267
  entropy T*S    EENTRO =        -0.00784565
  eigenvalues    EBANDS =      -575.25856575
  atomic energy  EATOM  =     11890.63736546
  Solvation  Ediel_sol  =         0.00000000
  ---------------------------------------------------
  free energy    TOTEN  =      -120.97979683 eV

  energy without entropy =     -120.97195118  energy(sigma->0) =     -120.97718161


--------------------------------------------------------------------------------------------------------




--------------------------------------- Iteration      1(   4)  ---------------------------------------


     EDDAV:  cpu time   16.7552: real time   16.7561
       DOS:  cpu time    0.0088: real time    0.0088
    --------------------------------------------
      LOOP:  cpu time   16.7640: real time   16.7649

 eigenvalue-minimisations  : 25664
 total energy-change (2. order) :-0.4435910E+01  (-0.4229164E+01)
 number of electron     168.0000000 magnetization 
 augmentation part      168.0000000 magnetization 

 Free energy of the ion-electron system (eV)
  ---------------------------------------------------
  alpha Z        PSCENC =       324.87461712
  Ewald energy   TEWEN  =     99876.57261103
  -Hartree energ DENC   =   -112165.20944314
  -exchange      EXHF   =         0.00000000
  -V(xc)+E(xc)   XCENC  =        68.64611026
  PAW double counting   =     11288.27476651   -10829.50941267
  entropy T*S    EENTRO =        -0.00763892
  eigenvalues    EBANDS =      -579.69468245
  atomic energy  EATOM  =     11890.63736546
  Solvation  Ediel_sol  =         0.00000000
  ---------------------------------------------------
  free energy    TOTEN  =      -125.41570680 eV

  energy without entropy =     -125.40806788  energy(sigma->0) =     -125.41316049


--------------------------------------------------------------------------------------------------------




--------------------------------------- Iteration      1(   5)  ---------------------------------------


     EDDAV:  cpu time   17.5170: real time   17.5237
       DOS:  cpu time    0.0088: real time    0.0088
    CHARGE:  cpu time    0.7117: real time    0.7117
    MIXING:  cpu time    0.0011: real time    0.0011
    --------------------------------------------
      LOOP:  cpu time   18.2386: real time   18.2453

 eigenvalue-minimisations  : 26996
 total energy-change (2. order) :-0.1427403E+00  (-0.1414520E+00)
 number of electron     168.0000079 magnetization 
 augmentation part       47.1280017 magnetization 

 Broyden mixing:
  rms(total) = 0.42615E+01    rms(broyden)= 0.42614E+01
  rms(prec ) = 0.43044E+01
  weight for this iteration     100.00

 Free energy of the ion-electron system (eV)
  ---------------------------------------------------
  alpha Z        PSCENC =       324.87461712
  Ewald energy   TEWEN  =     99876.57261103
  -Hartree energ DENC   =   -112165.20944314
  -exchange      EXHF   =         0.00000000
  -V(xc)+E(xc)   XCENC  =        68.64611026
  PAW double counting   =     11288.27476651   -10829.50941267
  entropy T*S    EENTRO =        -0.00780830
  eigenvalues    EBANDS =      -579.83725336
  atomic energy  EATOM  =     11890.63736546
  Solvation  Ediel_sol  =         0.00000000
  ---------------------------------------------------
  free energy    TOTEN  =      -125.55844710 eV

  energy without entropy =     -125.55063879  energy(sigma->0) =     -125.55584433


--------------------------------------------------------------------------------------------------------




--------------------------------------- Iteration      1(   6)  ---------------------------------------


    POTLOK:  cpu time    0.0236: real time    0.0237
    SETDIJ:  cpu time    0.0034: real time    0.0034
     EDDAV:  cpu time   15.1656: real time   15.1660
       DOS:  cpu time    0.0098: real time    0.0098
    CHARGE:  cpu time    0.7464: real time    0.7464
    MIXING:  cpu time    0.0010: real time    0.0010
    --------------------------------------------
      LOOP:  cpu time   15.9498: real time   15.9504

 eigenvalue-minimisations  : 22588
 total energy-change (2. order) : 0.5549913E+01  (-0.3276158E+01)
 number of electron     168.0000071 magnetization 
 augmentation part       49.7389700 magnetization 

 Broyden mixing:
  rms(total) = 0.34852E+01    rms(broyden)= 0.34851E+01
  rms(prec ) = 0.38052E+01
  weight for this iteration     100.00

 eigenvalues of (default mixing * dielectric matrix)
  average eigenvalue GAMMA=   0.9714
  0.9714

 Free energy of the ion-electron system (eV)
  ---------------------------------------------------
  alpha Z        PSCENC =       324.87461712
  Ewald energy   TEWEN  =     99876.57261103
  -Hartree energ DENC   =   -111968.54538853
  -exchange      EXHF   =         0.00000000
  -V(xc)+E(xc)   XCENC  =        65.62781648
  PAW double counting   =     12551.19008623   -12115.90185027
  entropy T*S    EENTRO =         0.00806585
  eigenvalues    EBANDS =      -744.47185785
  atomic energy  EATOM  =     11890.63736546
  Solvation  Ediel_sol  =         0.00000000
  ---------------------------------------------------
  free energy    TOTEN  =      -120.00853449 eV

  energy without entropy =     -120.01660033  energy(sigma->0) =     -120.01122310


--------------------------------------------------------------------------------------------------------




--------------------------------------- Iteration      1(   7)  ---------------------------------------


    POTLOK:  cpu time    0.0221: real time    0.0231
    SETDIJ:  cpu time    0.0033: real time    0.0033
     EDDAV:  cpu time   18.3992: real time   18.3999
       DOS:  cpu time    0.0089: real time    0.0089
    CHARGE:  cpu time    0.7155: real time    0.7162
    MIXING:  cpu time    0.0014: real time    0.0014
    --------------------------------------------
      LOOP:  cpu time   19.1505: real time   19.1529

 eigenvalue-minimisations  : 28828
 total energy-change (2. order) :-0.5161858E+02  (-0.2287615E+02)
 number of electron     168.0000070 magnetization 
 augmentation part       47.9201835 magnetization 

 Broyden mixing:
  rms(total) = 0.57714E+01    rms(broyden)= 0.57713E+01
  rms(prec ) = 0.73412E+01
  weight for this iteration     100.00

 eigenvalues of (default mixing * dielectric matrix)
  average eigenvalue GAMMA=   0.8849
  1.6078  0.1619

 Free energy of the ion-electron system (eV)
  ---------------------------------------------------
  alpha Z        PSCENC =       324.87461712
  Ewald energy   TEWEN  =     99876.57261103
  -Hartree energ DENC   =   -112056.54167368
  -exchange      EXHF   =         0.00000000
  -V(xc)+E(xc)   XCENC  =        65.17573511
  PAW double counting   =     13183.85285318   -12755.38795639
  entropy T*S    EENTRO =        -0.01285454
  eigenvalues    EBANDS =      -700.79780999
  atomic energy  EATOM  =     11890.63736546
  Solvation  Ediel_sol  =         0.00000000
  ---------------------------------------------------
  free energy    TOTEN  =      -171.62711270 eV

  energy without entropy =     -171.61425816  energy(sigma->0) =     -171.62282785


--------------------------------------------------------------------------------------------------------




--------------------------------------- Iteration      1(   8)  ---------------------------------------


    POTLOK:  cpu time    0.0233: real time    0.0239
    SETDIJ:  cpu time    0.0033: real time    0.0033
     EDDAV:  cpu time   17.8183: real time   17.8190
       DOS:  cpu time    0.0099: real time    0.0099
    CHARGE:  cpu time    0.7122: real time    0.7122
    MIXING:  cpu time    0.0012: real time    0.0012
    --------------------------------------------
      LOOP:  cpu time   18.5683: real time   18.5695

 eigenvalue-minimisations  : 27640
 total energy-change (2. order) : 0.2618664E+02  (-0.9963607E+01)
 number of electron     168.0000092 magnetization 
 augmentation part       49.2702393 magnetization 

 Broyden mixing:
  rms(total) = 0.45240E+01    rms(broyden)= 0.45238E+01
  rms(prec ) = 0.50642E+01
  weight for this iteration     100.00

 eigenvalues of (default mixing * dielectric matrix)
  average eigenvalue GAMMA=   0.8354
  2.0706  0.2178  0.2178

 Free energy of the ion-electron system (eV)
  ---------------------------------------------------
  alpha Z        PSCENC =       324.87461712
  Ewald energy   TEWEN  =     99876.57261103
  -Hartree energ DENC   =   -112113.10021366
  -exchange      EXHF   =         0.00000000
  -V(xc)+E(xc)   XCENC  =        64.58252672
  PAW double counting   =     13991.12724505   -13572.01465069
  entropy T*S    EENTRO =        -0.01013676
  eigenvalues    EBANDS =      -608.10983845
  atomic energy  EATOM  =     11890.63736546
  Solvation  Ediel_sol  =         0.00000000
[...]
     21      -5.2138      2.00000
     22      -5.0953      2.00000
     23      -5.0421      2.00000
     24      -4.9520      2.00000
     25      -4.9088      2.00000
     26      -4.8697      2.00000
     27      -4.8417      2.00000
     28      -4.8123      2.00000
     29      -4.7894      2.00000
     30      -4.7511      2.00000
     31      -4.7338      2.00000
     32      -4.6968      2.00000
     33      -4.4324      2.00000
     34      -4.3379      2.00000
     35      -4.3019      2.00000
     36      -4.2548      2.00000
     37      -4.2035      2.00000
     38      -4.1578      2.00000
     39      -4.0117      2.00000
     40      -4.0067      2.00000
     41      -3.8537      2.00000
     42      -3.8092      2.00000
     43      -3.8023      2.00000
     44      -3.7286      2.00000
     45      -3.6675      2.00000
     46      -3.5192      2.00000
     47      -3.4786      2.00000
     48      -3.4667      2.00000
     49      -3.4020      2.00000
     50      -3.3781      2.00000
     51      -3.3530      2.00000
     52      -3.3214      2.00000
     53      -3.2697      2.00000
     54      -3.1561      2.00000
     55      -3.0851      2.00000
     56      -3.0159      2.00000
     57      -2.9063      2.00000
     58      -2.7972      2.00000
     59      -2.6521      2.00000
     60      -2.5929      2.00000
     61      -2.5669      2.00000
     62      -2.5260      2.00000
     63      -2.3849      2.00000
     64      -2.3055      2.00000
     65      -2.1737      2.00000
     66      -2.1373      2.00000
     67      -2.0391      2.00000
     68      -1.9436      2.00000
     69      -1.9116      2.00000
     70      -1.8537      2.00000
     71      -1.7657      2.00000
     72      -1.7510      2.00000
     73      -1.6689      2.00000
     74      -1.6014      2.00000
     75      -1.5314      2.00000
     76      -1.4501      2.00000
     77      -1.4046      2.00000
     78      -1.2983      2.00000
     79      -1.1223      2.00037
     80      -0.9879      2.00780
     81      -0.9681      2.01118
     82      -0.8735      2.04305
     83      -0.7612      2.06211
     84      -0.6873      1.92119
     85      -0.5979      1.41721
     86      -0.5008      0.62140
     87      -0.4596      0.33390
     88      -0.3005     -0.07090
     89      -0.1597     -0.01958
     90      -0.0912     -0.00588
     91       0.4735     -0.00000
     92       0.8500     -0.00000
     93       1.7585     -0.00000
     94       1.8314     -0.00000
     95       1.9376     -0.00000
     96       2.5846     -0.00000
     97       3.5035     -0.00000
     98       3.6982     -0.00000
     99       4.2392     -0.00000
    100       4.2988     -0.00000

 k-point    96 :      -0.4375    0.1250    0.0000
  band No.  band energies     occupation 
      1     -12.3140      2.00000
      2      -8.0900      2.00000
      3      -8.0085      2.00000
      4      -7.0212      2.00000
      5      -6.9880      2.00000
      6      -6.6306      2.00000
      7      -6.3727      2.00000
      8      -6.2833      2.00000
      9      -6.1902      2.00000
     10      -6.1323      2.00000
     11      -6.0235      2.00000
     12      -5.9865      2.00000
     13      -5.9316      2.00000
     14      -5.8773      2.00000
     15      -5.7424      2.00000
     16      -5.5614      2.00000
     17      -5.5221      2.00000
     18      -5.4729      2.00000
     19      -5.4386      2.00000
     20      -5.2586      2.00000
     21      -5.2123      2.00000
     22      -5.1071      2.00000
     23      -5.0497      2.00000
     24      -4.9522      2.00000
     25      -4.9043      2.00000
     26      -4.8649      2.00000
     27      -4.8264      2.00000
     28      -4.8073      2.00000
     29      -4.7929      2.00000
     30      -4.7581      2.00000
     31      -4.7359      2.00000
     32      -4.6956      2.00000
     33      -4.4675      2.00000
     34      -4.3427      2.00000
     35      -4.2998      2.00000
     36      -4.2549      2.00000
     37      -4.2011      2.00000
     38      -4.1392      2.00000
     39      -4.0393      2.00000
     40      -4.0038      2.00000
     41      -3.8804      2.00000
     42      -3.8036      2.00000
     43      -3.7814      2.00000
     44      -3.7260      2.00000
     45      -3.6590      2.00000
     46      -3.5319      2.00000
     47      -3.4832      2.00000
     48      -3.4646      2.00000
     49      -3.4056      2.00000
     50      -3.3767      2.00000
     51      -3.3369      2.00000
     52      -3.3071      2.00000
     53      -3.2645      2.00000
     54      -3.1655      2.00000
     55      -3.0661      2.00000
     56      -3.0392      2.00000
     57      -2.9525      2.00000
     58      -2.7722      2.00000
     59      -2.6655      2.00000
     60      -2.6091      2.00000
     61      -2.5388      2.00000
     62      -2.5024      2.00000
     63      -2.3829      2.00000
     64      -2.3208      2.00000
     65      -2.1465      2.00000
     66      -2.1364      2.00000
     67      -2.0444      2.00000
     68      -2.0097      2.00000
     69      -1.8757      2.00000
     70      -1.8597      2.00000
     71      -1.7786      2.00000
     72      -1.7106      2.00000
     73      -1.6757      2.00000
     74      -1.5814      2.00000
     75      -1.5261      2.00000
     76      -1.4601      2.00000
     77      -1.4566      2.00000
     78      -1.2799      2.00000
     79      -1.0969      2.00070
     80      -1.0720      2.00130
     81      -0.9341      2.01955
     82      -0.8383      2.05901
     83      -0.7551      2.05778
     84      -0.6952      1.94719
     85      -0.6240      1.60218
     86      -0.4997      0.61292
     87      -0.4242      0.14844
     88      -0.3251     -0.06606
     89      -0.1759     -0.02482
     90      -0.0600     -0.00309
     91       0.4772     -0.00000
     92       0.8522     -0.00000
     93       1.7522     -0.00000
     94       1.8517     -0.00000
     95       1.9338     -0.00000
     96       2.5892     -0.00000
     97       3.4884     -0.00000
     98       3.6941     -0.00000
     99       4.2045     -0.00000
    100       4.3335     -0.00000


--------------------------------------------------------------------------------------------------------


 soft charge-density along one line, spin component           1
         0         1         2         3         4         5         6         7         8         9
 total charge-density along one line
 
 pseudopotential strength for first ion, spin component:           1
 -7.996   0.001  -0.001  -0.008   0.000  -8.144   0.001  -0.001
  0.001  -7.979  -0.001   0.001  -0.006   0.001  -8.127  -0.001
 -0.001  -0.001  -7.997   0.001   0.000  -0.001  -0.001  -8.144
 -0.008   0.001   0.001  -7.980   0.001  -0.008   0.001   0.001
  0.000  -0.006   0.000   0.001  -7.996   0.000  -0.006   0.000
 -8.144   0.001  -0.001  -0.008   0.000  -8.275   0.001  -0.001
  0.001  -8.127  -0.001   0.001  -0.006   0.001  -8.259  -0.001
 -0.001  -0.001  -8.144   0.001   0.000  -0.001  -0.001  -8.276
 -0.008   0.001   0.001  -8.127   0.001  -0.008   0.001   0.001
  0.000  -0.006   0.000   0.001  -8.144   0.000  -0.006   0.000
 -0.000   0.001  -0.001  -0.000   0.000  -0.000   0.001  -0.001
 -0.001   0.001  -0.002  -0.001   0.000  -0.001   0.001  -0.002
 -0.000  -0.002  -0.000  -0.000  -0.000  -0.000  -0.002  -0.000
 -0.000  -0.000  -0.002  -0.000  -0.000  -0.000   0.000  -0.002
 -0.000  -0.000   0.000  -0.002  -0.000  -0.000  -0.000   0.000
 -0.000  -0.002  -0.000   0.000  -0.000  -0.000  -0.002  -0.000
  0.000   0.000  -0.003  -0.000  -0.000   0.000   0.000  -0.003
 -0.000   0.000   0.000  -0.002  -0.000  -0.000   0.000   0.000
 total augmentation occupancy for first ion, spin component:           1
  6.195   0.031  -0.021   0.242   0.014  -4.184  -0.024   0.017  -0.344  -0.012   0.004  -0.000   0.000  -0.002  -0.000  -0.000
  0.031   6.257  -0.032   0.010   0.246  -0.024  -4.053   0.023  -0.005  -0.345  -0.012   0.001   0.004  -0.002  -0.001  -0.001
 -0.021  -0.032   6.152   0.002  -0.003   0.017   0.023  -4.242  -0.001   0.002   0.071  -0.033  -0.001   0.022   0.001  -0.000
  0.242   0.010   0.002   6.267   0.035  -0.344  -0.005  -0.001  -4.067  -0.028  -0.002  -0.001  -0.001  -0.001   0.002  -0.000
  0.014   0.246  -0.003   0.035   6.186  -0.012  -0.345   0.002  -0.028  -4.176  -0.005  -0.001   0.002   0.000  -0.001  -0.000
 -4.184  -0.024   0.017  -0.344  -0.012   4.086   0.020  -0.015   0.421   0.010  -0.002  -0.001  -0.000   0.002  -0.002   0.000
 -0.024  -4.053   0.023  -0.005  -0.345   0.020   3.800  -0.015   0.001   0.419   0.009   0.000  -0.010   0.002   0.001   0.001
  0.017   0.023  -4.242  -0.001   0.002  -0.015  -0.015   4.218  -0.001  -0.001  -0.079   0.032   0.001  -0.022  -0.000  -0.000
 -0.344  -0.005  -0.001  -4.067  -0.028   0.421   0.001  -0.001   3.817   0.022   0.003  -0.001   0.001   0.002  -0.008  -0.000
 -0.012  -0.345   0.002  -0.028  -4.176   0.010   0.419  -0.001   0.022   4.080   0.004   0.001  -0.004  -0.000   0.001   0.000
  0.004  -0.012   0.071  -0.002  -0.005  -0.002   0.009  -0.079   0.003   0.004   3.057  -0.844   0.001  -0.018   0.000  -0.000
 -0.000   0.001  -0.033  -0.001  -0.001  -0.001   0.000   0.032  -0.001   0.001  -0.844   0.256  -0.000   0.005  -0.000   0.000
  0.000   0.004  -0.001  -0.001   0.002  -0.000  -0.010   0.001   0.001  -0.004   0.001  -0.000   0.248   0.001  -0.000  -0.008
 -0.002  -0.002   0.022  -0.001   0.000   0.002   0.002  -0.022   0.002  -0.000  -0.018   0.005   0.001   0.240   0.000  -0.000
 -0.000  -0.001   0.001   0.002  -0.001  -0.002   0.001  -0.000  -0.008   0.001   0.000  -0.000  -0.000   0.000   0.248  -0.000
 -0.000  -0.001  -0.000  -0.000  -0.000   0.000   0.001  -0.000  -0.000   0.000  -0.000   0.000  -0.008  -0.000  -0.000   0.000
 -0.000   0.000  -0.002  -0.000  -0.000  -0.000  -0.000   0.001   0.000  -0.000   0.001  -0.000  -0.000  -0.008  -0.000   0.000
 -0.000  -0.000  -0.000  -0.001  -0.000   0.000  -0.000  -0.000   0.001   0.000   0.000  -0.000  -0.000  -0.000  -0.008   0.000


------------------------ aborting loop because EDIFF is reached ----------------------------------------



 DIPCOR: dipole corrections for dipol
 direction  3 min pos    21,
 dipolmoment           0.000000      0.000000     -0.097468 electrons x Angstroem
 Tr[quadrupol]      -944.730214

 energy correction for charged system         0.000000 eV
 dipol+quadrupol energy correction            0.001043 eV
 added-field ion interaction          0.000000 eV  (added to PSCEN)

 
  *************** adding dipol energy to TOTEN NOW **************** 
    CHARGE:  cpu time    0.7410: real time    0.7411
    FORLOC:  cpu time    0.0070: real time    0.0070
    FORNL :  cpu time    3.0135: real time    3.0135
    STRESS:  cpu time    9.0956: real time    9.0959
    FORCOR:  cpu time    0.0294: real time    0.0294
    FORHAR:  cpu time    0.0119: real time    0.0119
    MIXING:  cpu time    0.0044: real time    0.0044
    OFIELD:  cpu time    0.0000: real time    0.0000

  FORCE on cell =-STRESS in cart. coord.  units (eV):
  Direction    XX          YY          ZZ          XY          YZ          ZX
  --------------------------------------------------------------------------------------
  Alpha Z   324.87462   324.87462   324.87462
  Ewald  108767.56108108767.79115************    -3.13529     2.35395    -3.24509
  Hartree111226.61706111226.88237************    -0.72093     0.85767    -0.71699
  E(xc)    -737.06035  -737.05298  -741.62584    -0.00773     0.01981    -0.03612
  Local  ************************225144.43289     3.31904    -2.74640     2.78193
  n-local    43.35511    43.29304    25.09508    -0.18879    -0.11268    -0.12117
  augment   834.39601   834.41812   863.05281     0.20436    -0.08270     0.46440
  Kinetic  2383.04765  2383.04253  2456.44162     0.49513    -0.37750     0.85856
  Fock        0.00000     0.00000     0.00000     0.00000     0.00000     0.00000
  -------------------------------------------------------------------------------------
  Total     -11.73141   -11.73320     0.04177    -0.03421    -0.08784    -0.01448
  in kB     -22.80690   -22.81038     0.08120    -0.06651    -0.17078    -0.02815
  external pressure =      -15.18 kB  Pullay stress =        0.00 kB


 VOLUME and BASIS-vectors are now :
 -----------------------------------------------------------------------------
  energy-cutoff  :      350.00
  volume of cell :      824.13
      direct lattice vectors                 reciprocal lattice vectors
     5.557859300  0.000000000  0.000000000     0.179925390 -0.103879972  0.000000000
     2.778929650  4.813247345  0.000000000     0.000000000  0.207759944  0.000000000
     0.000000000  0.000000000 30.806959674     0.000000000  0.000000000  0.032460198

  length of vectors
     5.557859300  5.557859300 30.806959674     0.207759944  0.207759944  0.032460198


 FORCES acting on ions
    electron-ion (+dipol)            ewald-force                    non-local-force                 convergence-correction
 -----------------------------------------------------------------------------------------------
   0.113E+01 0.389E+00 -.827E+03   -.112E+01 -.399E+00 0.827E+03   -.263E-02 0.319E-02 0.282E+00   0.158E-03 0.189E-03 0.118E-01
   0.694E-01 0.241E+00 -.122E+04   -.240E-02 -.227E+00 0.122E+04   -.564E-01 0.567E-03 -.745E-01   -.161E-04 -.164E-05 -.226E-02
   0.214E+02 -.301E+02 -.320E+03   -.238E+02 0.335E+02 0.323E+03   0.237E+01 -.334E+01 -.356E+01   -.583E-04 0.792E-04 -.357E-03
   0.343E+02 0.286E+02 -.297E+03   -.381E+02 -.318E+02 0.295E+03   0.377E+01 0.315E+01 0.226E+01   -.816E-04 -.653E-04 -.674E-03
   -.337E+02 0.281E+02 -.315E+03   0.375E+02 -.313E+02 0.318E+03   -.375E+01 0.312E+01 -.241E+01   0.877E-04 -.778E-04 -.430E-03
   -.221E+02 -.273E+02 -.291E+03   0.245E+02 0.302E+02 0.287E+03   -.240E+01 -.296E+01 0.373E+01   0.353E-04 0.572E-04 -.721E-03
   0.703E-01 -.374E+00 0.265E+04   -.750E-01 0.364E+00 -.265E+04   0.331E-01 -.797E-02 -.184E+00   0.858E-04 -.274E-04 0.312E-02
   -.495E+01 0.300E+01 0.114E+04   0.511E+01 -.311E+01 -.114E+04   -.819E-02 0.108E-01 -.306E+00   0.260E-03 0.790E-04 0.114E-01
   0.489E+01 -.252E+01 0.114E+04   -.508E+01 0.263E+01 -.114E+04   0.282E-01 -.496E-03 -.357E+00   -.258E-03 -.637E-03 0.120E-01
   0.481E-01 -.922E+00 -.753E+03   -.680E-01 0.938E+00 0.752E+03   0.469E-01 -.390E-01 0.439E+00   -.391E-03 -.225E-04 0.108E-01
   0.441E-01 0.183E+00 -.755E+03   -.714E-02 -.152E+00 0.755E+03   -.524E-01 -.415E-01 0.353E+00   0.393E-03 0.137E-03 0.107E-01
   -.488E+01 0.264E+01 0.114E+04   0.505E+01 -.273E+01 -.114E+04   -.167E-01 0.122E-02 -.330E+00   -.620E-03 0.127E-03 0.121E-01
   -.101E+01 0.363E+00 -.753E+03   0.100E+01 -.405E+00 0.752E+03   0.643E-02 0.665E-01 0.373E+00   -.137E-03 -.284E-03 0.109E-01
   -.307E+01 0.106E+01 -.260E+04   0.327E+01 -.104E+01 0.260E+04   -.688E-01 0.685E-01 0.166E+01   -.610E-04 -.127E-03 0.153E-02
   0.375E+01 -.134E+01 -.264E+04   -.389E+01 0.144E+01 0.264E+04   0.264E-01 -.317E-01 0.103E+01   0.568E-04 -.102E-03 0.157E-02
   -.130E+01 0.212E+01 -.264E+04   0.134E+01 -.231E+01 0.264E+04   -.693E-01 0.657E-01 0.100E+01   0.188E-04 0.147E-03 0.163E-02
   0.131E+01 -.160E+01 -.263E+04   -.130E+01 0.161E+01 0.263E+04   0.134E-01 -.157E-01 0.940E+00   -.166E-04 0.838E-04 0.179E-02
   0.924E-01 0.161E+00 0.295E+04   -.135E+00 -.127E+00 -.295E+04   0.665E-01 -.421E-01 -.638E+00   -.770E-04 0.112E-04 0.341E-02
   -.385E+00 0.421E+00 0.295E+04   0.378E+00 -.368E+00 -.295E+04   -.200E-01 -.392E-01 -.750E+00   0.720E-04 0.130E-03 0.345E-02
   0.479E+01 -.303E+01 0.114E+04   -.499E+01 0.313E+01 -.114E+04   0.202E-01 -.229E-01 -.273E+00   0.623E-03 0.425E-03 0.118E-01
   -.385E+00 -.121E+00 0.295E+04   0.335E+00 0.767E-01 -.295E+04   0.245E-01 0.599E-01 -.734E+00   -.102E-03 -.113E-03 0.339E-02
 -----------------------------------------------------------------------------------------------
   0.431E-01 -.395E-02 -.257E+01   -.318E-13 -.459E-14 -.455E-12   -.475E-01 0.386E-03 0.245E+01   -.276E-04 0.927E-05 0.107E+00
 
 
 POSITION                                       TOTAL-FORCE (eV/Angst)
 -----------------------------------------------------------------------------------
      6.97305      4.00897     16.61301         0.006599     -0.007311      0.155684
      0.12557      0.21666     22.19480         0.010838      0.015032      0.042649
      5.20513      0.89180     22.91801        -0.007094     -0.009844      0.056723
      7.69586      4.38961     21.73115        -0.005936     -0.007240      0.039066
      3.65965      4.40040     22.68495        -0.003751     -0.004375      0.051919
      0.61870      0.82474     21.41634        -0.000815     -0.009345      0.054012
      2.78297      0.00023     11.99664         0.028743     -0.018211      1.155568
      2.79331      3.20817     14.31893         0.156688     -0.095485     -0.143443
      5.57229      3.20873     14.32294        -0.162557      0.107488     -0.462567
      5.58349      1.60254     16.61271         0.026941     -0.022444     -0.218535
      2.80468      1.60176     16.61639        -0.014826     -0.010736      0.015848
      1.40378      0.80179     14.31958         0.154915     -0.096178     -0.267124
      4.19399      4.00892     16.61332        -0.001148      0.024698      0.015209
      2.81511      4.80881     18.92866         0.129118      0.094581      0.160094
      5.59459      4.80926     18.93783        -0.112677      0.066847      0.168605
      1.42654      2.40297     18.93748        -0.024543     -0.125089      0.163931
      4.20331      2.40277     18.93632         0.023930     -0.007894     -0.045425
      4.17329      2.40793     11.99643         0.023717     -0.007901     -0.350015
      1.39298      2.40773     11.99679        -0.026716      0.014223     -0.061627
      4.18266      0.80188     14.31870        -0.176284      0.083606     -0.468377
      0.00425      0.00095     11.99510        -0.025142      0.015579     -0.062196
 -----------------------------------------------------------------------------------
    total drift:                               -0.004391     -0.003553     -0.019898


--------------------------------------------------------------------------------------------------------



  FREE ENERGIE OF THE ION-ELECTRON SYSTEM (eV)
  ---------------------------------------------------
  free  energy   TOTEN  =      -115.70723956 eV

  energy  without entropy=     -115.69368885  energy(sigma->0) =     -115.70272266
 


--------------------------------------------------------------------------------------------------------


    POTLOK:  cpu time    0.0265: real time    0.0265


--------------------------------------------------------------------------------------------------------


     LOOP+:  cpu time  554.1009: real time  554.1895
    4ORBIT:  cpu time    0.0000: real time    0.0000

 total amount of memory used by VASP MPI-rank0   164309. kBytes
=======================================================================

   base      :      30000. kBytes
   nonlr-proj:       2356. kBytes
   fftplans  :       2967. kBytes
   grid      :       6321. kBytes
   one-center:         93. kBytes
   wavefun   :     122572. kBytes
 
  
  
 General timing and accounting informations for this job:
 ========================================================
  
                  Total CPU time used (sec):      561.798
                            User time (sec):      560.422
                          System time (sec):        1.376
                         Elapsed time (sec):      562.080
  
                   Maximum memory used (kb):      208932.
                   Average memory used (kb):           0.
  
                          Minor page faults:        85743
                          Major page faults:            0
                 Voluntary context switches:         1140
