       N       E                     dE             d eps       ncg     rms          rms(c)
DAV:   1     0.102888018739E+04    0.10289E+04   -0.58316E+04 19288   0.103E+03
DAV:   2    -0.296158242244E+02   -0.10585E+04   -0.98609E+03 24088   0.259E+02
DAV:   3    -0.120981742920E+03   -0.91366E+02   -0.84498E+02 23104   0.757E+01
DAV:   4    -0.125379810647E+03   -0.43981E+01   -0.41842E+01 25620   0.169E+01
DAV:   5    -0.125514986146E+03   -0.13518E+00   -0.13402E+00 26648   0.290E+00    0.432E+01
DAV:   6    -0.118296190820E+03    0.72188E+01   -0.36261E+01 22948   0.251E+01    0.325E+01
DAV:   7    -0.138844292957E+03   -0.20548E+02   -0.86632E+01 26964   0.549E+01    0.441E+01
DAV:   8    -0.118869767512E+03    0.19975E+02   -0.29698E+01 29296   0.368E+01    0.176E+01
DAV:   9    -0.138625900206E+03   -0.19756E+02   -0.59408E+01 30968   0.520E+01    0.372E+01
DAV:  10    -0.116797430529E+03    0.21828E+02   -0.40259E+01 32852   0.398E+01    0.116E+01
DAV:  11    -0.115411015837E+03    0.13864E+01   -0.59217E+00 23320   0.102E+01    0.524E+00
DAV:  12    -0.115244647021E+03    0.16637E+00   -0.10252E+00 22648   0.494E+00    0.372E+00
DAV:  13    -0.115211439336E+03    0.33208E-01   -0.56413E-01 26088   0.327E+00    0.349E+00
DAV:  14    -0.115178623785E+03    0.32816E-01   -0.40488E-01 28328   0.256E+00    0.232E+00
DAV:  15    -0.115179324354E+03   -0.70057E-03   -0.47849E-01 28456   0.262E+00    0.247E+00
DAV:  16    -0.115163281566E+03    0.16043E-01   -0.12314E-01 26688   0.145E+00    0.177E+00
DAV:  17    -0.115141408892E+03    0.21873E-01   -0.73080E-02 22148   0.107E+00    0.757E-01
DAV:  18    -0.115138967067E+03    0.24418E-02   -0.91651E-03 22736   0.414E-01    0.518E-01
DAV:  19    -0.115137605576E+03    0.13615E-02   -0.70044E-03 22368   0.364E-01    0.355E-01
DAV:  20    -0.115137211424E+03    0.39415E-03   -0.38369E-03 21752   0.251E-01    0.201E-01
DAV:  21    -0.115137176651E+03    0.34773E-04   -0.10830E-03 23928   0.140E-01    0.179E-01
DAV:  22    -0.115137094230E+03    0.82421E-04   -0.53919E-04 24152   0.106E-01    0.151E-01
DAV:  23    -0.115136994722E+03    0.99508E-04   -0.52365E-04 24976   0.932E-02    0.503E-02
DAV:  24    -0.115137123788E+03   -0.12907E-03   -0.14201E-04 20428   0.485E-02    0.450E-02
DAV:  25    -0.115137283522E+03   -0.15973E-03   -0.80818E-05 17516   0.374E-02    0.485E-02
DAV:  26    -0.115137386889E+03   -0.10337E-03   -0.40020E-05 14552   0.257E-02    0.295E-02
DAV:  27    -0.115137511118E+03   -0.12423E-03   -0.58654E-05 14208   0.292E-02    0.225E-02
DAV:  28    -0.115137748698E+03   -0.23758E-03   -0.25078E-05 15408   0.194E-02    0.208E-02
DAV:  29    -0.115137857379E+03   -0.10868E-03   -0.99451E-06 12720   0.109E-02    0.172E-02
DAV:  30    -0.115137954126E+03   -0.96747E-04   -0.67242E-06 12972   0.866E-03    0.199E-02
DAV:  31    -0.115138046901E+03   -0.92775E-04   -0.13722E-05 12624   0.136E-02    0.581E-03
DAV:  32    -0.115138074307E+03   -0.27406E-04   -0.27972E-06 12376   0.620E-03    0.295E-03
DAV:  33    -0.115138092117E+03   -0.17809E-04   -0.95492E-07 11156   0.323E-03    0.218E-03
DAV:  34    -0.115138123416E+03   -0.31299E-04   -0.19378E-06 12132   0.412E-03    0.503E-03
DAV:  35    -0.115138128542E+03   -0.51254E-05   -0.52482E-07 10976   0.293E-03
   1 F= -.11512764E+03 E0= -.11511770E+03  d E =-.298353E-01
