 vasp.5.4.4.18Apr17-6-g9f103f2a35 (build Apr 28 2017 10:53:45) complex          
  
 executed on             LinuxIFC date 2019.07.18  18:09:41
 running on   16 total cores
 distrk:  each k-point on   16 cores,    1 groups
 distr:  one band on NCORES_PER_BAND=   4 cores,    4 groups


--------------------------------------------------------------------------------------------------------


 INCAR:
 POTCAR:    PAW_PBE Au 04Oct2007                  
 POTCAR:    PAW_PBE C 08Apr2002                   
 POTCAR:    PAW_PBE H 15Jun2001                   
 POTCAR:    PAW_PBE Ir 06Sep2000                  
 POTCAR:    PAW_PBE Pt 04Feb2005                  
 POTCAR:    PAW_PBE Au 04Oct2007                  
   VRHFIN =Au: s1d10                                                            
   LEXCH  = PE                                                                  
   EATOM  =   926.0867 eV,   68.0654 Ry                                         
                                                                                
   TITEL  = PAW_PBE Au 04Oct2007                                                
   LULTRA =        F    use ultrasoft PP ?                                      
   IUNSCR =        1    unscreen: 0-lin 1-nonlin 2-no                           
   RPACOR =    2.330    partial core radius                                     
   POMASS =  196.966; ZVAL   =   11.000    mass and valenz                      
   RCORE  =    2.500    outmost cutoff radius                                   
   RWIGS  =    2.840; RWIGS  =    1.503    wigner-seitz radius (au A)           
   ENMAX  =  229.943; ENMIN  =  172.457 eV                                      
   ICORE  =        3    local potential                                         
   LCOR   =        T    correct aug charges                                     
   LPAW   =        T    paw PP                                                  
   EAUG   =  356.670                                                            
   DEXC   =    0.000                                                            
   RMAX   =    2.562    core radius for proj-oper                               
   RAUG   =    1.300    factor for augmentation sphere                          
   RDEP   =    2.598    radius for radial grids                                 
   RDEPT  =    2.193    core radius for aug-charge                              
                                                                                
   Atomic configuration                                                         
   16 entries                                                                   
     n  l   j            E        occ.                                          
     1  0  0.50    -80748.5001   2.0000                                         
     2  0  0.50    -14244.7466   2.0000                                         
     2  1  1.50    -12310.9591   6.0000                                         
     3  0  0.50     -3362.1768   2.0000                                         
     3  1  1.50     -2801.5463   6.0000                                         
     3  2  2.50     -2203.8206  10.0000                                         
     4  0  0.50      -729.8168   2.0000                                         
     4  1  1.50      -546.0527   6.0000                                         
     4  2  2.50      -325.7302  10.0000                                         
     4  3  3.50       -81.1472  14.0000                                         
     5  0  0.50      -108.3201   2.0000                                         
     5  1  1.50       -59.7479   6.0000                                         
     5  2  2.50        -6.8783  10.0000                                         
     6  0  0.50        -5.7602   1.0000                                         
     6  1  1.50        -6.8029   0.0000                                         
     5  3  2.50        -1.3606   0.0000                                         
   Description                                                                  
     l       E           TYP  RCUT    TYP  RCUT                                 
     2     -6.8782861     23  2.500                                             
     2     -8.2388687     23  2.500                                             
     0     -5.7601759     23  2.500                                             
     0     -0.8493231     23  2.500                                             
     1     -2.7211652     23  2.500                                             
     1     27.2116520     23  2.500                                             
     3     -1.3605826     23  2.500                                             
  local pseudopotential read in
  partial core-charges read in
  partial kinetic energy density read in
  atomic valenz-charges read in
  non local Contribution for L=           2  read in
    real space projection operators read in
  non local Contribution for L=           2  read in
    real space projection operators read in
  non local Contribution for L=           0  read in
    real space projection operators read in
  non local Contribution for L=           0  read in
    real space projection operators read in
  non local Contribution for L=           1  read in
    real space projection operators read in
  non local Contribution for L=           1  read in
    real space projection operators read in
    PAW grid and wavefunctions read in
 
   number of l-projection  operators is LMAX  =           6
   number of lm-projection operators is LMMAX =          18
 
 POTCAR:    PAW_PBE C 08Apr2002                   
   VRHFIN =C: s2p2                                                              
   LEXCH  = PE                                                                  
   EATOM  =   147.1560 eV,   10.8157 Ry                                         
                                                                                
   TITEL  = PAW_PBE C 08Apr2002                                                 
   LULTRA =        F    use ultrasoft PP ?                                      
   IUNSCR =        1    unscreen: 0-lin 1-nonlin 2-no                           
   RPACOR =    1.200    partial core radius                                     
   POMASS =   12.011; ZVAL   =    4.000    mass and valenz                      
   RCORE  =    1.500    outmost cutoff radius                                   
   RWIGS  =    1.630; RWIGS  =    0.863    wigner-seitz radius (au A)           
   ENMAX  =  400.000; ENMIN  =  300.000 eV                                      
   ICORE  =        2    local potential                                         
   LCOR   =        T    correct aug charges                                     
   LPAW   =        T    paw PP                                                  
   EAUG   =  644.873                                                            
   DEXC   =    0.000                                                            
   RMAX   =    1.529    core radius for proj-oper                               
   RAUG   =    1.300    factor for augmentation sphere                          
   RDEP   =    1.501    radius for radial grids                                 
   RDEPT  =    1.300    core radius for aug-charge                              
                                                                                
   Atomic configuration                                                         
    4 entries                                                                   
     n  l   j            E        occ.                                          
     1  0  0.50      -273.3789   2.0000                                         
     2  0  0.50       -13.7508   2.0000                                         
     2  1  0.50        -5.2854   2.0000                                         
     3  2  1.50        -5.4423   0.0000                                         
   Description                                                                  
     l       E           TYP  RCUT    TYP  RCUT                                 
     0    -13.7508458     23  1.200                                             
     0     -8.2022199     23  1.200                                             
     1     -5.2854383     23  1.500                                             
     1     34.0145650     23  1.500                                             
     2     -5.4423304      7  1.500                                             
  local pseudopotential read in
  partial core-charges read in
  partial kinetic energy density read in
  atomic valenz-charges read in
  non local Contribution for L=           0  read in
    real space projection operators read in
  non local Contribution for L=           0  read in
    real space projection operators read in
  non local Contribution for L=           1  read in
    real space projection operators read in
  non local Contribution for L=           1  read in
    real space projection operators read in
    PAW grid and wavefunctions read in
 
   number of l-projection  operators is LMAX  =           4
   number of lm-projection operators is LMMAX =           8
 
 POTCAR:    PAW_PBE H 15Jun2001                   
   VRHFIN =H: ultrasoft test                                                    
   LEXCH  = PE                                                                  
   EATOM  =    12.4884 eV,    0.9179 Ry                                         
                                                                                
   TITEL  = PAW_PBE H 15Jun2001                                                 
   LULTRA =        F    use ultrasoft PP ?                                      
   IUNSCR =        0    unscreen: 0-lin 1-nonlin 2-no                           
   RPACOR =    0.000    partial core radius                                     
   POMASS =    1.000; ZVAL   =    1.000    mass and valenz                      
   RCORE  =    1.100    outmost cutoff radius                                   
   RWIGS  =    0.700; RWIGS  =    0.370    wigner-seitz radius (au A)           
   ENMAX  =  250.000; ENMIN  =  200.000 eV                                      
   RCLOC  =    0.701    cutoff for local pot                                    
   LCOR   =        T    correct aug charges                                     
   LPAW   =        T    paw PP                                                  
   EAUG   =  400.000                                                            
   RMAX   =    1.123    core radius for proj-oper                               
   RAUG   =    1.200    factor for augmentation sphere                          
   RDEP   =    1.112    radius for radial grids                                 
   RDEPT  =    0.926    core radius for aug-charge                              
                                                                                
   Atomic configuration                                                         
    2 entries                                                                   
     n  l   j            E        occ.                                          
     1  0  0.50        -6.4927   1.0000                                         
     2  1  0.50        -3.4015   0.0000                                         
   Description                                                                  
     l       E           TYP  RCUT    TYP  RCUT                                 
     0     -6.4927494     23  1.100                                             
     0      6.8029130     23  1.100                                             
     1     -4.0817478     23  1.100                                             
  local pseudopotential read in
  atomic valenz-charges read in
  non local Contribution for L=           0  read in
    real space projection operators read in
  non local Contribution for L=           0  read in
    real space projection operators read in
  non local Contribution for L=           1  read in
    real space projection operators read in
    PAW grid and wavefunctions read in
 
   number of l-projection  operators is LMAX  =           3
   number of lm-projection operators is LMMAX =           5
 
 POTCAR:    PAW_PBE Ir 06Sep2000                  
   VRHFIN =Ir: s1d8                                                             
   LEXCH  = PE                                                                  
   EATOM  =   560.1833 eV,   41.1723 Ry                                         
                                                                                
   TITEL  = PAW_PBE Ir 06Sep2000                                                
   LULTRA =        F    use ultrasoft PP ?                                      
   IUNSCR =        1    unscreen: 0-lin 1-nonlin 2-no                           
   RPACOR =    2.250    partial core radius                                     
   POMASS =  192.220; ZVAL   =    9.000    mass and valenz                      
   RCORE  =    2.600    outmost cutoff radius                                   
   RWIGS  =    2.690; RWIGS  =    1.423    wigner-seitz radius (au A)           
   ENMAX  =  210.864; ENMIN  =  158.148 eV                                      
   RCLOC  =    1.857    cutoff for local pot                                    
   LCOR   =        T    correct aug charges                                     
   LPAW   =        T    paw PP                                                  
   EAUG   =  318.962                                                            
   DEXC   =    0.000                                                            
   RMAX   =    2.667    core radius for proj-oper                               
   RAUG   =    1.300    factor for augmentation sphere                          
   RDEP   =    2.748    radius for radial grids                                 
   RDEPT  =    2.300    core radius for aug-charge                              
                                                                                
   Atomic configuration                                                         
   16 entries                                                                   
     n  l   j            E        occ.                                          
     1  0  0.50    -76100.0449   2.0000                                         
     2  0  0.50    -13308.1683   2.0000                                         
     2  1  1.50    -11558.0021   6.0000                                         
     3  0  0.50     -3110.7274   2.0000                                         
     3  1  1.50     -2599.2109   6.0000                                         
     3  2  2.50     -2037.1515  10.0000                                         
     4  0  0.50      -661.6001   2.0000                                         
     4  1  1.50      -493.8981   6.0000                                         
     4  2  2.50      -288.1909  10.0000                                         
     4  3  3.50       -59.5718  14.0000                                         
     5  0  0.50       -95.3879   2.0000                                         
     5  1  1.50       -52.2747   6.0000                                         
     5  2  2.50        -5.4180   8.0000                                         
     6  0  0.50        -5.5479   1.0000                                         
     6  1  1.50        -6.8029   0.0000                                         
     5  3  2.50        -1.3606   0.0000                                         
   Description                                                                  
     l       E           TYP  RCUT    TYP  RCUT                                 
     2     -5.4179967     23  2.600                                             
     2     -6.7785793     23  2.600                                             
     0     -5.5478636     23  2.600                                             
     0      2.2542272     23  2.600                                             
     1     -2.7211652     23  2.600                                             
     1     20.4087390     23  2.600                                             
  local pseudopotential read in
  partial core-charges read in
  partial kinetic energy density read in
  atomic valenz-charges read in
  non local Contribution for L=           2  read in
    real space projection operators read in
  non local Contribution for L=           2  read in
    real space projection operators read in
  non local Contribution for L=           0  read in
    real space projection operators read in
  non local Contribution for L=           0  read in
    real space projection operators read in
  non local Contribution for L=           1  read in
    real space projection operators read in
  non local Contribution for L=           1  read in
    real space projection operators read in
    PAW grid and wavefunctions read in
 
   number of l-projection  operators is LMAX  =           6
   number of lm-projection operators is LMMAX =          18
 
 POTCAR:    PAW_PBE Pt 04Feb2005                  
   VRHFIN =Pt: s1d9                                                             
   LEXCH  = PE                                                                  
   EATOM  =   729.1176 eV,   53.5886 Ry                                         
                                                                                
   TITEL  = PAW_PBE Pt 04Feb2005                                                
   LULTRA =        F    use ultrasoft PP ?                                      
   IUNSCR =        1    unscreen: 0-lin 1-nonlin 2-no                           
   RPACOR =    2.330    partial core radius                                     
   POMASS =  195.080; ZVAL   =   10.000    mass and valenz                      
   RCORE  =    2.600    outmost cutoff radius                                   
   RWIGS  =    2.750; RWIGS  =    1.455    wigner-seitz radius (au A)           
   ENMAX  =  230.283; ENMIN  =  172.712 eV                                      
   ICORE  =        3    local potential                                         
   LCOR   =        T    correct aug charges                                     
   LPAW   =        T    paw PP                                                  
   EAUG   =  358.966                                                            
   DEXC   =    0.000                                                            
   RMAX   =    2.658    core radius for proj-oper                               
   RAUG   =    1.300    factor for augmentation sphere                          
   RDEP   =    2.761    radius for radial grids                                 
   RDEPT  =    2.203    core radius for aug-charge                              
                                                                                
   Atomic configuration                                                         
   16 entries                                                                   
     n  l   j            E        occ.                                          
     1  0  0.50    -78401.1885   2.0000                                         
     2  0  0.50    -13770.7750   2.0000                                         
     2  1  1.50    -11931.0468   6.0000                                         
     3  0  0.50     -3234.7234   2.0000                                         
     3  1  1.50     -2699.2216   6.0000                                         
     3  2  2.50     -2119.5714  10.0000                                         
     4  0  0.50      -695.1528   2.0000                                         
     4  1  1.50      -519.6034   6.0000                                         
     4  2  2.50      -306.6786  10.0000                                         
     4  3  3.50       -70.1041  14.0000                                         
     5  0  0.50      -101.7747   2.0000                                         
     5  1  1.50       -55.9873   6.0000                                         
     5  2  2.50        -6.1423   9.0000                                         
     6  0  0.50        -5.6573   1.0000                                         
     6  1  1.50        -6.8029   0.0000                                         
     5  3  2.50        -1.3606   0.0000                                         
   Description                                                                  
     l       E           TYP  RCUT    TYP  RCUT                                 
     2     -6.1423404     23  2.500                                             
     2     -7.5029230     23  2.500                                             
     0     -5.6573207     23  2.500                                             
     0      0.7416693     23  2.500                                             
     1     -2.7211652     23  2.600                                             
     1     20.4087390     23  2.600                                             
     3     -1.3605826     23  2.500                                             
  local pseudopotential read in
  partial core-charges read in
  partial kinetic energy density read in
  atomic valenz-charges read in
  non local Contribution for L=           2  read in
    real space projection operators read in
  non local Contribution for L=           2  read in
    real space projection operators read in
  non local Contribution for L=           0  read in
    real space projection operators read in
  non local Contribution for L=           0  read in
    real space projection operators read in
  non local Contribution for L=           1  read in
    real space projection operators read in
  non local Contribution for L=           1  read in
    real space projection operators read in
    PAW grid and wavefunctions read in
 
   number of l-projection  operators is LMAX  =           6
   number of lm-projection operators is LMMAX =          18
 
 Optimization of the real space projectors (new method)

 maximal supplied QI-value         = 15.12
 optimisation between [QCUT,QGAM] = [  9.52, 19.05] = [ 25.40,101.61] Ry 
 Optimized for a Real-space Cutoff    1.57 Angstroem

   l    n(q)    QCUT    max X(q) W(low)/X(q) W(high)/X(q)  e(spline) 
   2      8     9.524    60.898    0.38E-03    0.43E-04    0.84E-07
   2      8     9.524    58.894    0.38E-03    0.47E-04    0.88E-07
   0      9     9.524   109.617    0.60E-04    0.64E-04    0.80E-07
   0      9     9.524    75.026    0.59E-04    0.62E-04    0.78E-07
   1      8     9.524    16.344    0.99E-04    0.18E-03    0.87E-07
   1      8     9.524    10.160    0.78E-04    0.15E-03    0.74E-07
 Optimization of the real space projectors (new method)

 maximal supplied QI-value         = 25.13
 optimisation between [QCUT,QGAM] = [  9.55, 19.10] = [ 25.54,102.17] Ry 
 Optimized for a Real-space Cutoff    1.39 Angstroem

   l    n(q)    QCUT    max X(q) W(low)/X(q) W(high)/X(q)  e(spline) 
   0      8     9.551   115.676    0.39E-03    0.54E-03    0.29E-06
   0      8     9.551    87.132    0.39E-03    0.54E-03    0.28E-06
   1      7     9.551     4.429    0.35E-03    0.51E-04    0.29E-06
   1      7     9.551     2.733    0.22E-03    0.42E-04    0.31E-06
 Optimization of the real space projectors (new method)

 maximal supplied QI-value         = 34.20
 optimisation between [QCUT,QGAM] = [  9.58, 19.15] = [ 25.68,102.74] Ry 
 Optimized for a Real-space Cutoff    1.31 Angstroem

   l    n(q)    QCUT    max X(q) W(low)/X(q) W(high)/X(q)  e(spline) 
   0      7     9.577    19.460    0.33E-03    0.12E-03    0.35E-06
   0      7     9.577    12.209    0.33E-03    0.11E-03    0.33E-06
   1      7     9.577     4.655    0.39E-03    0.14E-02    0.33E-06
 Optimization of the real space projectors (new method)

 maximal supplied QI-value         = 14.36
 optimisation between [QCUT,QGAM] = [  9.48, 19.10] = [ 25.16,102.17] Ry 
 Optimized for a Real-space Cutoff    1.57 Angstroem

   l    n(q)    QCUT    max X(q) W(low)/X(q) W(high)/X(q)  e(spline) 
   2      8     9.479   134.116    0.18E-03    0.75E-03    0.26E-06
   2      8     9.479   130.192    0.18E-03    0.75E-03    0.27E-06
   0      9     9.479    60.310    0.39E-03    0.24E-03    0.63E-07
   0      9     9.479    39.218    0.36E-03    0.22E-03    0.59E-07
   1      8     9.479    18.439    0.20E-03    0.15E-03    0.16E-06
   1      8     9.479    12.760    0.16E-03    0.11E-03    0.13E-06
 Optimization of the real space projectors (new method)

 maximal supplied QI-value         = 14.36
 optimisation between [QCUT,QGAM] = [  9.48, 19.10] = [ 25.16,102.17] Ry 
 Optimized for a Real-space Cutoff    1.57 Angstroem

   l    n(q)    QCUT    max X(q) W(low)/X(q) W(high)/X(q)  e(spline) 
   2      8     9.479    66.195    0.35E-03    0.53E-04    0.87E-07
   2      8     9.479    64.643    0.35E-03    0.57E-04    0.91E-07
   0      9     9.479    95.520    0.50E-04    0.62E-04    0.81E-07
   0      9     9.479    63.403    0.49E-04    0.60E-04    0.78E-07
   1      8     9.479    19.961    0.10E-03    0.87E-04    0.11E-06
   1      8     9.479    13.289    0.88E-04    0.71E-04    0.97E-07
  PAW_PBE Au 04Oct2007                  :
 energy of atom  1       EATOM= -926.0867
 kinetic energy error for atom=    0.0152 (will be added to EATOM!!)
  PAW_PBE C 08Apr2002                   :
 energy of atom  2       EATOM= -147.1560
 kinetic energy error for atom=    0.0854 (will be added to EATOM!!)
  PAW_PBE H 15Jun2001                   :
 energy of atom  3       EATOM=  -12.4884
 kinetic energy error for atom=    0.0203 (will be added to EATOM!!)
  PAW_PBE Ir 06Sep2000                  :
 energy of atom  4       EATOM= -560.1833
 kinetic energy error for atom=    0.0056 (will be added to EATOM!!)
  PAW_PBE Pt 04Feb2005                  :
 energy of atom  5       EATOM= -729.1176
 kinetic energy error for atom=    0.0144 (will be added to EATOM!!)
 
 
 POSCAR: Au  C  H Ir Pt                          
  positions in cartesian coordinates
  No initial velocities read in
 exchange correlation table for  LEXCH =        8
   RHO(1)=    0.500       N(1)  =     2000
   RHO(2)=  100.500       N(2)  =     4000
 


--------------------------------------------------------------------------------------------------------


 ion  position               nearest neighbor table
   1  0.008  0.986  0.629-   2 2.08   9 2.76  10 2.77   8 2.79   8 2.80   9 2.82  10 2.83  21 3.00
                            11 3.01  13 3.07
   2  0.997  0.976  0.696-   5 1.10   6 1.10   4 1.10   1 2.08
   3  0.046  0.367  0.667-   9 1.56
   4  0.877  0.189  0.709-   2 1.10
   5  0.899  0.855  0.706-   2 1.10
   6  0.213  0.876  0.708-   2 1.10
   7  0.498  0.006  0.394-  19 2.77  12 2.77  18 2.78  18 2.78  19 2.79  12 2.79  16 2.82  14 2.83
                            17 2.84
   8  0.510  0.490  0.619-  13 2.77   9 2.77  10 2.78  10 2.78   9 2.79  11 2.79   1 2.79  20 2.79
                             1 2.80
   9  0.009  0.490  0.621-   3 1.56   1 2.76  10 2.77   8 2.77   8 2.79  10 2.79   1 2.82  13 2.84
                            21 2.84  20 2.85
  10  0.511  0.989  0.619-  21 2.75  11 2.77   1 2.77   9 2.77   8 2.78   8 2.78   9 2.79  20 2.82
                             1 2.83
  11  0.335  0.833  0.546-  21 2.75  13 2.75  10 2.77  20 2.78  20 2.78   8 2.79  15 2.81  13 2.81
                            21 2.81  17 2.83  14 2.84   1 3.01
  12  0.001  0.004  0.394-  18 2.76   7 2.77  19 2.78  19 2.78   7 2.79  18 2.79  16 2.81  17 2.84
                            15 2.85
  13  0.840  0.328  0.545-  11 2.75  21 2.76   8 2.77  20 2.78  20 2.78  17 2.79  21 2.80  11 2.81
                            16 2.82   9 2.84  14 2.85   1 3.07
  14  0.668  0.670  0.469-  15 2.78  16 2.78  17 2.78  16 2.78  17 2.78  15 2.78  19 2.82   7 2.83
                            18 2.83  11 2.84  21 2.85  13 2.85
  15  0.167  0.670  0.471-  14 2.78  17 2.78  16 2.78  16 2.78  17 2.78  14 2.78  20 2.79  21 2.80
                            11 2.81  19 2.85  12 2.85  18 2.85
  16  0.668  0.170  0.469-  14 2.78  17 2.78  15 2.78  15 2.78  17 2.78  14 2.78  20 2.80  12 2.81
                             7 2.82  13 2.82  18 2.83  21 2.88
  17  0.168  0.169  0.470-  14 2.78  15 2.78  16 2.78  20 2.78  16 2.78  15 2.78  14 2.78  13 2.79
                            11 2.83   7 2.84  12 2.84  19 2.85
  18  0.497  0.506  0.394-  12 2.76  19 2.77   7 2.78   7 2.78  19 2.79  12 2.79  16 2.83  14 2.83
                            15 2.85
  19  0.001  0.504  0.394-  18 2.77   7 2.77  12 2.78  12 2.78   7 2.79  18 2.79  14 2.82  15 2.85
                            17 2.85
  20  0.339  0.330  0.544-  21 2.77  13 2.78  11 2.78  17 2.78  11 2.78  13 2.78  21 2.79   8 2.79
                            15 2.79  16 2.80  10 2.82   9 2.85
  21  0.841  0.830  0.546-  11 2.75  10 2.75  13 2.76  20 2.77  20 2.79  15 2.80  13 2.80  11 2.81
                             9 2.84  14 2.85  16 2.88   1 3.00
 
  LATTYP: Found a hexagonal cell.
 ALAT       =     5.5578593001
 C/A-ratio  =     5.5429542221
  
  Lattice vectors:
  
 A1 = (   2.7789296501,  -4.8132473446,   0.0000000000)
 A2 = (  -5.5578593001,   0.0000000000,   0.0000000000)
 A3 = (   0.0000000000,   0.0000000000, -30.8069596737)


Analysis of symmetry for initial positions (statically):
=====================================================================
 Subroutine PRICEL returns:
 Original cell was already a primitive cell.
 

 Routine SETGRP: Setting up the symmetry group for a 
 hexagonal supercell.


 Subroutine GETGRP returns: Found  1 space group operations
 (whereof  1 operations were pure point group operations)
 out of a pool of 24 trial point group operations.


The static configuration has the point symmetry C_1 .


Analysis of symmetry for dynamics (positions and initial velocities):
=====================================================================
 Subroutine PRICEL returns:
 Original cell was already a primitive cell.
 

 Routine SETGRP: Setting up the symmetry group for a 
 hexagonal supercell.


 Subroutine GETGRP returns: Found  1 space group operations
 (whereof  1 operations were pure point group operations)
 out of a pool of 24 trial point group operations.


The dynamic configuration has the point symmetry C_1 .


 Subroutine INISYM returns: Found  1 space group operations
 (whereof  1 operations are pure point group operations),
 and found     1 'primitive' translations

 
 
 KPOINTS: 0.1.Ir1.Au12                            

Automatic generation of k-mesh.
Space group operators:
 irot       det(A)        alpha          n_x          n_y          n_z        tau_x        tau_y        tau_z
    1     1.000000     0.000001     1.000000     0.000000     0.000000     0.000000     0.000000     0.000000
 
 Subroutine IBZKPT returns following result:
 ===========================================
 
 Found     96 irreducible k-points:
 
 Following reciprocal coordinates:
            Coordinates               Weight
  0.062500  0.062500  0.000000     16.000000
  0.000000  0.062500  0.000000     16.000000
 -0.062500  0.000000  0.000000     16.000000
  0.187500  0.062500  0.000000     16.000000
  0.125000  0.187500  0.000000     16.000000
 -0.062500  0.125000  0.000000     16.000000
  0.125000 -0.062500  0.000000     16.000000
 -0.062500 -0.187500  0.000000     16.000000
 -0.187500 -0.125000  0.000000     16.000000
  0.312500  0.062500  0.000000     16.000000
  0.250000  0.312500  0.000000     16.000000
 -0.062500  0.250000  0.000000     16.000000
  0.250000 -0.062500  0.000000     16.000000
 -0.062500 -0.312500  0.000000     16.000000
 -0.312500 -0.250000  0.000000     16.000000
  0.437500  0.062500  0.000000     16.000000
  0.375000  0.437500  0.000000     16.000000
 -0.062500  0.375000  0.000000     16.000000
  0.375000 -0.062500  0.000000     16.000000
 -0.062500 -0.437500  0.000000     16.000000
 -0.437500 -0.375000  0.000000     16.000000
 -0.437500  0.062500  0.000000     16.000000
  0.500000 -0.437500  0.000000     16.000000
 -0.062500  0.500000  0.000000     16.000000
  0.500000 -0.062500  0.000000     16.000000
 -0.062500  0.437500  0.000000     16.000000
  0.437500  0.500000  0.000000     16.000000
 -0.312500  0.062500  0.000000     16.000000
 -0.375000 -0.312500  0.000000     16.000000
 -0.062500 -0.375000  0.000000     16.000000
 -0.375000 -0.062500  0.000000     16.000000
 -0.062500  0.312500  0.000000     16.000000
  0.312500  0.375000  0.000000     16.000000
 -0.187500  0.062500  0.000000     16.000000
 -0.250000 -0.187500  0.000000     16.000000
 -0.062500 -0.250000  0.000000     16.000000
 -0.250000 -0.062500  0.000000     16.000000
 -0.062500  0.187500  0.000000     16.000000
  0.187500  0.250000  0.000000     16.000000
 -0.062500  0.062500  0.000000     16.000000
 -0.125000 -0.062500  0.000000     16.000000
 -0.062500 -0.125000  0.000000     16.000000
  0.187500  0.187500  0.000000     16.000000
  0.000000  0.187500  0.000000     16.000000
 -0.187500  0.000000  0.000000     16.000000
  0.312500  0.187500  0.000000     16.000000
  0.125000  0.312500  0.000000     16.000000
 -0.187500  0.125000  0.000000     16.000000
  0.125000 -0.187500  0.000000     16.000000
 -0.187500 -0.312500  0.000000     16.000000
 -0.312500 -0.125000  0.000000     16.000000
  0.437500  0.187500  0.000000     16.000000
  0.250000  0.437500  0.000000     16.000000
 -0.187500  0.250000  0.000000     16.000000
  0.250000 -0.187500  0.000000     16.000000
 -0.187500 -0.437500  0.000000     16.000000
 -0.437500 -0.250000  0.000000     16.000000
 -0.437500  0.187500  0.000000     16.000000
  0.375000 -0.437500  0.000000     16.000000
 -0.187500  0.375000  0.000000     16.000000
  0.375000 -0.187500  0.000000     16.000000
 -0.187500  0.437500  0.000000     16.000000
  0.437500 -0.375000  0.000000     16.000000
 -0.312500  0.187500  0.000000     16.000000
  0.500000 -0.312500  0.000000     16.000000
 -0.187500  0.500000  0.000000     16.000000
  0.500000 -0.187500  0.000000     16.000000
 -0.187500  0.312500  0.000000     16.000000
  0.312500  0.500000  0.000000     16.000000
 -0.187500  0.187500  0.000000     16.000000
 -0.375000 -0.187500  0.000000     16.000000
 -0.187500 -0.375000  0.000000     16.000000
  0.312500  0.312500  0.000000     16.000000
  0.000000  0.312500  0.000000     16.000000
 -0.312500  0.000000  0.000000     16.000000
  0.437500  0.312500  0.000000     16.000000
  0.125000  0.437500  0.000000     16.000000
 -0.312500  0.125000  0.000000     16.000000
  0.125000 -0.312500  0.000000     16.000000
 -0.312500 -0.437500  0.000000     16.000000
 -0.437500 -0.125000  0.000000     16.000000
 -0.437500  0.312500  0.000000     16.000000
  0.250000 -0.437500  0.000000     16.000000
 -0.312500  0.250000  0.000000     16.000000
  0.250000 -0.312500  0.000000     16.000000
 -0.312500  0.437500  0.000000     16.000000
  0.437500 -0.250000  0.000000     16.000000
 -0.312500  0.312500  0.000000     16.000000
  0.375000 -0.312500  0.000000     16.000000
 -0.312500  0.375000  0.000000     16.000000
  0.437500  0.437500  0.000000     16.000000
  0.000000  0.437500  0.000000     16.000000
 -0.437500 -0.000000  0.000000     16.000000
 -0.437500  0.437500  0.000000     16.000000
  0.125000 -0.437500  0.000000     16.000000
 -0.437500  0.125000  0.000000     16.000000
 
 Following cartesian coordinates:
            Coordinates               Weight
  0.011245  0.006492  0.000000     16.000000
  0.000000  0.012985  0.000000     16.000000
 -0.011245  0.006492  0.000000     16.000000
  0.033736 -0.006492  0.000000     16.000000
  0.022491  0.025970  0.000000     16.000000
 -0.011245  0.032462  0.000000     16.000000
  0.022491 -0.025970  0.000000     16.000000
 -0.011245 -0.032462  0.000000     16.000000
 -0.033736 -0.006492  0.000000     16.000000
  0.056227 -0.019477  0.000000     16.000000
  0.044981  0.038955  0.000000     16.000000
 -0.011245  0.058432  0.000000     16.000000
  0.044981 -0.038955  0.000000     16.000000
 -0.011245 -0.058432  0.000000     16.000000
 -0.056227 -0.019477  0.000000     16.000000
  0.078717 -0.032462  0.000000     16.000000
  0.067472  0.051940  0.000000     16.000000
 -0.011245  0.084402  0.000000     16.000000
  0.067472 -0.051940  0.000000     16.000000
 -0.011245 -0.084402  0.000000     16.000000
 -0.078717 -0.032462  0.000000     16.000000
 -0.078717  0.058432  0.000000     16.000000
  0.089963 -0.142835  0.000000     16.000000
 -0.011245  0.110372  0.000000     16.000000
  0.089963 -0.064925  0.000000     16.000000
 -0.011245  0.097387  0.000000     16.000000
  0.078717  0.058432  0.000000     16.000000
 -0.056227  0.045447  0.000000     16.000000
 -0.067472 -0.025970  0.000000     16.000000
 -0.011245 -0.071417  0.000000     16.000000
 -0.067472  0.025970  0.000000     16.000000
 -0.011245  0.071417  0.000000     16.000000
  0.056227  0.045447  0.000000     16.000000
 -0.033736  0.032462  0.000000     16.000000
 -0.044981 -0.012985  0.000000     16.000000
 -0.011245 -0.045447  0.000000     16.000000
 -0.044981  0.012985  0.000000     16.000000
 -0.011245  0.045447  0.000000     16.000000
  0.033736  0.032462  0.000000     16.000000
 -0.011245  0.019477  0.000000     16.000000
 -0.022491  0.000000  0.000000     16.000000
 -0.011245 -0.019477  0.000000     16.000000
  0.033736  0.019477  0.000000     16.000000
  0.000000  0.038955  0.000000     16.000000
 -0.033736  0.019477  0.000000     16.000000
  0.056227  0.006492  0.000000     16.000000
  0.022491  0.051940  0.000000     16.000000
 -0.033736  0.045447  0.000000     16.000000
  0.022491 -0.051940  0.000000     16.000000
 -0.033736 -0.045447  0.000000     16.000000
 -0.056227  0.006492  0.000000     16.000000
  0.078717 -0.006492  0.000000     16.000000
  0.044981  0.064925  0.000000     16.000000
 -0.033736  0.071417  0.000000     16.000000
  0.044981 -0.064925  0.000000     16.000000
 -0.033736 -0.071417  0.000000     16.000000
 -0.078717 -0.006492  0.000000     16.000000
 -0.078717  0.084402  0.000000     16.000000
  0.067472 -0.129850  0.000000     16.000000
 -0.033736  0.097387  0.000000     16.000000
  0.067472 -0.077910  0.000000     16.000000
 -0.033736  0.110372  0.000000     16.000000
  0.078717 -0.123357  0.000000     16.000000
 -0.056227  0.071417  0.000000     16.000000
  0.089963 -0.116865  0.000000     16.000000
 -0.033736  0.123357  0.000000     16.000000
  0.089963 -0.090895  0.000000     16.000000
 -0.033736  0.084402  0.000000     16.000000
  0.056227  0.071417  0.000000     16.000000
 -0.033736  0.058432  0.000000     16.000000
 -0.067472  0.000000  0.000000     16.000000
 -0.033736 -0.058432  0.000000     16.000000
  0.056227  0.032462  0.000000     16.000000
  0.000000  0.064925  0.000000     16.000000
 -0.056227  0.032462  0.000000     16.000000
  0.078717  0.019477  0.000000     16.000000
  0.022491  0.077910  0.000000     16.000000
 -0.056227  0.058432  0.000000     16.000000
  0.022491 -0.077910  0.000000     16.000000
 -0.056227 -0.058432  0.000000     16.000000
 -0.078717  0.019477  0.000000     16.000000
 -0.078717  0.110372  0.000000     16.000000
  0.044981 -0.116865  0.000000     16.000000
 -0.056227  0.084402  0.000000     16.000000
  0.044981 -0.090895  0.000000     16.000000
 -0.056227  0.123357  0.000000     16.000000
  0.078717 -0.097387  0.000000     16.000000
 -0.056227  0.097387  0.000000     16.000000
  0.067472 -0.103880  0.000000     16.000000
 -0.056227  0.110372  0.000000     16.000000
  0.078717  0.045447  0.000000     16.000000
  0.000000  0.090895  0.000000     16.000000
 -0.078717  0.045447  0.000000     16.000000
 -0.078717  0.136342  0.000000     16.000000
  0.022491 -0.103880  0.000000     16.000000
 -0.078717  0.071417  0.000000     16.000000
 


--------------------------------------------------------------------------------------------------------




 Dimension of arrays:
   k-points           NKPTS =     96   k-points in BZ     NKDIM =     96   number of bands    NBANDS=    100
   number of dos      NEDOS =    301   number of ions     NIONS =     21
   non local maximal  LDIM  =      6   non local SUM 2l+1 LMDIM =     18
   total plane-waves  NPLWV = 112896
   max r-space proj   IRMAX =   2252   max aug-charges    IRDMAX=  10104
   dimension x,y,z NGX =    28 NGY =   28 NGZ =  144
   dimension x,y,z NGXF=    56 NGYF=   56 NGZF=  288
   support grid    NGXF=    56 NGYF=   56 NGZF=  288
   ions per type =               1   1   4   1  14
   NGX,Y,Z   is equivalent  to a cutoff of   8.38,  8.38,  7.77 a.u.
   NGXF,Y,Z  is equivalent  to a cutoff of  16.75, 16.75, 15.54 a.u.

 SYSTEM =  0.1.Ir1.Au12                            
 POSCAR =  Au  C  H Ir Pt                          

 Startparameter for this run:
   NWRITE =      2    write-flag & timer
   PREC   = normal    normal or accurate (medium, high low for compatibility)
   ISTART =      0    job   : 0-new  1-cont  2-samecut
   ICHARG =      2    charge: 1-file 2-atom 10-const
   ISPIN  =      1    spin polarized calculation?
   LNONCOLLINEAR =      F non collinear calculations
   LSORBIT =      F    spin-orbit coupling
   INIWAV =      1    electr: 0-lowe 1-rand  2-diag
   LASPH  =      F    aspherical Exc in radial PAW
   METAGGA=      F    non-selfconsistent MetaGGA calc.

 Electronic Relaxation 1
   ENCUT  =  350.0 eV  25.72 Ry    5.07 a.u.   8.48  8.48 46.99*2*pi/ulx,y,z
   ENINI  =  350.0     initial cutoff
   ENAUG  =  644.9 eV  augmentation charge cutoff
   NELM   =   1000;   NELMIN=  5; NELMDL= -5     # of ELM steps 
   EDIFF  = 0.1E-04   stopping-criterion for ELM
   LREAL  =      T    real-space projection
   NLSPLINE    = F    spline interpolate recip. space projectors
   LCOMPAT=      F    compatible to vasp.4.4
   GGA_COMPAT  = T    GGA compatible to vasp.4.4-vasp.4.6
   LMAXPAW     = -100 max onsite density
   LMAXMIX     =    2 max onsite mixed and CHGCAR
   VOSKOWN=      0    Vosko Wilk Nusair interpolation
   ROPT   =   -0.00050  -0.00050  -0.00050  -0.00050
   ROPT   =   -0.00050
 Ionic relaxation
   EDIFFG = 0.1E-03   stopping-criterion for IOM
   NSW    =      0    number of steps for IOM
   NBLOCK =      1;   KBLOCK =      1    inner block; outer block 
   IBRION =     -1    ionic relax: 0-MD 1-quasi-New 2-CG
   NFREE  =      0    steps in history (QN), initial steepest desc. (CG)
   ISIF   =      2    stress and relaxation
   IWAVPR =     10    prediction:  0-non 1-charg 2-wave 3-comb
   ISYM   =      2    0-nonsym 1-usesym 2-fastsym
   LCORR  =      T    Harris-Foulkes like correction to forces

   POTIM  = 0.5000    time-step for ionic-motion
   TEIN   =    0.0    initial temperature
   TEBEG  =    0.0;   TEEND  =   0.0 temperature during run
   SMASS  =  -3.00    Nose mass-parameter (am)
   estimated Nose-frequenzy (Omega)   =  0.10E-29 period in steps =****** mass=  -0.706E-27a.u.
   SCALEE = 1.0000    scale energy and forces
   NPACO  =    256;   APACO  = 16.0  distance and # of slots for P.C.
   PSTRESS=    0.0 pullay stress

  Mass of Ions in am
   POMASS = 196.97 12.01  1.00192.22195.08
  Ionic Valenz
   ZVAL   =  11.00  4.00  1.00  9.00 10.00
  Atomic Wigner-Seitz radii
   RWIGS  =  -1.00 -1.00 -1.00 -1.00 -1.00
  virtual crystal weights 
   VCA    =   1.00  1.00  1.00  1.00  1.00
   NELECT =     168.0000    total number of electrons
   NUPDOWN=      -1.0000    fix difference up-down

 DOS related values:
   EMIN   =  10.00;   EMAX   =-10.00  energy-range for DOS
   EFERMI =   0.00
   ISMEAR =     1;   SIGMA  =   0.20  broadening in eV -4-tet -1-fermi 0-gaus

 Electronic relaxation 2 (details)
   IALGO  =     38    algorithm
   LDIAG  =      T    sub-space diagonalisation (order eigenvalues)
   LSUBROT=      F    optimize rotation matrix (better conditioning)
   TURBO    =      0    0=normal 1=particle mesh
   IRESTART =      0    0=no restart 2=restart with 2 vectors
   NREBOOT  =      0    no. of reboots
   NMIN     =      0    reboot dimension
   EREF     =   0.00    reference energy to select bands
   IMIX   =      4    mixing-type and parameters
     AMIX     =   0.40;   BMIX     =  1.00
     AMIX_MAG =   1.60;   BMIX_MAG =  1.00
     AMIN     =   0.10
     WC   =   100.;   INIMIX=   1;  MIXPRE=   1;  MAXMIX= -45

 Intra band minimization:
   WEIMIN = 0.0000     energy-eigenvalue tresh-hold
   EBREAK =  0.25E-07  absolut break condition
   DEPER  =   0.30     relativ break condition  

   TIME   =   0.40     timestep for ELM

  volume/ion in A,a.u.               =      39.24       264.83
  Fermi-wavevector in a.u.,A,eV,Ry     =   0.963488  1.820729 12.630418  0.928310
  Thomas-Fermi vector in A             =   2.093038
 
 Write flags
   LWAVE        =      F    write WAVECAR
   LDOWNSAMPLE  =      F    k-point downsampling of WAVECAR
   LCHARG       =      F    write CHGCAR
   LVTOT        =      F    write LOCPOT, total local potential
   LVHAR        =      F    write LOCPOT, Hartree potential only
   LELF         =      F    write electronic localiz. function (ELF)
   LORBIT       =      0    0 simple, 1 ext, 2 COOP (PROOUT), +10 PAW based schemes


 Dipole corrections
   LMONO  =      F    monopole corrections only (constant potential shift)
   LDIPOL =      F    correct potential (dipole corrections)
   IDIPOL =      3    1-x, 2-y, 3-z, 4-all directions 
   EPSILON=  1.0000000 bulk dielectric constant

 Exchange correlation treatment:
   GGA     =    --    GGA type
   LEXCH   =     8    internal setting for exchange type
   VOSKOWN=      0    Vosko Wilk Nusair interpolation
   LHFCALC =     F    Hartree Fock is set to
   LHFONE  =     F    Hartree Fock one center treatment
   AEXX    =    0.0000 exact exchange contribution

 Linear response parameters
   LEPSILON=     F    determine dielectric tensor
   LRPA    =     F    only Hartree local field effects (RPA)
   LNABLA  =     F    use nabla operator in PAW spheres
   LVEL    =     F    velocity operator in full k-point grid
   LINTERFAST=   F  fast interpolation
   KINTER  =     0    interpolate to denser k-point grid
   CSHIFT  =0.1000    complex shift for real part using Kramers Kronig
   OMEGAMAX=  -1.0    maximum frequency
   DEG_THRESHOLD= 0.2000000E-02 threshold for treating states as degnerate
   RTIME   =   -0.100 relaxation time in fs
  (WPLASMAI=    0.000 imaginary part of plasma frequency in eV, 0.658/RTIME)
   DFIELD  = 0.0000000 0.0000000 0.0000000 field for delta impulse in time
 
 Orbital magnetization related:
   ORBITALMAG=     F  switch on orbital magnetization
   LCHIMAG   =     F  perturbation theory with respect to B field
   DQ        =  0.001000  dq finite difference perturbation B field
   LLRAUG    =     F  two centre corrections for induced B field



--------------------------------------------------------------------------------------------------------


 Static calculation
 charge density and potential will be updated during run
 non-spin polarized calculation
 Variant of blocked Davidson
 Davidson routine will perform the subspace rotation
 perform sub-space diagonalisation
    after iterative eigenvector-optimisation
 modified Broyden-mixing scheme, WC =      100.0
 initial mixing is a Kerker type mixing with AMIX =  0.4000 and BMIX =      1.0000
 Hartree-type preconditioning will be used
 using additional bands           16
 real space projection scheme for non local part
 use partial core corrections
 calculate Harris-corrections to forces 
   (improved forces if not selfconsistent)
 use gradient corrections 
 use of overlap-Matrix (Vanderbilt PP)
 Methfessel and Paxton  Order N= 1 SIGMA  =   0.20


--------------------------------------------------------------------------------------------------------


  energy-cutoff  :      350.00
  volume of cell :      824.13
      direct lattice vectors                 reciprocal lattice vectors
     5.557859300  0.000000000  0.000000000     0.179925390 -0.103879972  0.000000000
     2.778929650  4.813247345  0.000000000     0.000000000  0.207759944  0.000000000
     0.000000000  0.000000000 30.806959674     0.000000000  0.000000000  0.032460198

  length of vectors
     5.557859300  5.557859300 30.806959674     0.207759944  0.207759944  0.032460198


 
 k-points in units of 2pi/SCALE and weight: 0.1.Ir1.Au12                            
   0.01124534  0.00649250  0.00000000       0.010
   0.00000000  0.01298500  0.00000000       0.010
  -0.01124534  0.00649250  0.00000000       0.010
   0.03373601 -0.00649250  0.00000000       0.010
   0.02249067  0.02596999  0.00000000       0.010
  -0.01124534  0.03246249  0.00000000       0.010
   0.02249067 -0.02596999  0.00000000       0.010
  -0.01124534 -0.03246249  0.00000000       0.010
  -0.03373601 -0.00649250  0.00000000       0.010
   0.05622668 -0.01947749  0.00000000       0.010
   0.04498135  0.03895499  0.00000000       0.010
  -0.01124534  0.05843248  0.00000000       0.010
   0.04498135 -0.03895499  0.00000000       0.010
  -0.01124534 -0.05843248  0.00000000       0.010
  -0.05622668 -0.01947749  0.00000000       0.010
   0.07871736 -0.03246249  0.00000000       0.010
   0.06747202  0.05193999  0.00000000       0.010
  -0.01124534  0.08440248  0.00000000       0.010
   0.06747202 -0.05193999  0.00000000       0.010
  -0.01124534 -0.08440248  0.00000000       0.010
  -0.07871736 -0.03246249  0.00000000       0.010
  -0.07871736  0.05843248  0.00000000       0.010
   0.08996269 -0.14283496  0.00000000       0.010
  -0.01124534  0.11037247  0.00000000       0.010
   0.08996269 -0.06492498  0.00000000       0.010
  -0.01124534  0.09738747  0.00000000       0.010
   0.07871736  0.05843248  0.00000000       0.010
  -0.05622668  0.04544749  0.00000000       0.010
  -0.06747202 -0.02596999  0.00000000       0.010
  -0.01124534 -0.07141748  0.00000000       0.010
  -0.06747202  0.02596999  0.00000000       0.010
  -0.01124534  0.07141748  0.00000000       0.010
   0.05622668  0.04544749  0.00000000       0.010
  -0.03373601  0.03246249  0.00000000       0.010
  -0.04498135 -0.01298500  0.00000000       0.010
  -0.01124534 -0.04544749  0.00000000       0.010
  -0.04498135  0.01298500  0.00000000       0.010
  -0.01124534  0.04544749  0.00000000       0.010
   0.03373601  0.03246249  0.00000000       0.010
  -0.01124534  0.01947749  0.00000000       0.010
  -0.02249067  0.00000000  0.00000000       0.010
  -0.01124534 -0.01947749  0.00000000       0.010
   0.03373601  0.01947749  0.00000000       0.010
   0.00000000  0.03895499  0.00000000       0.010
  -0.03373601  0.01947749  0.00000000       0.010
   0.05622668  0.00649250  0.00000000       0.010
   0.02249067  0.05193999  0.00000000       0.010
  -0.03373601  0.04544749  0.00000000       0.010
   0.02249067 -0.05193999  0.00000000       0.010
  -0.03373601 -0.04544749  0.00000000       0.010
  -0.05622668  0.00649250  0.00000000       0.010
   0.07871736 -0.00649250  0.00000000       0.010
   0.04498135  0.06492498  0.00000000       0.010
  -0.03373601  0.07141748  0.00000000       0.010
   0.04498135 -0.06492498  0.00000000       0.010
  -0.03373601 -0.07141748  0.00000000       0.010
  -0.07871736 -0.00649250  0.00000000       0.010
  -0.07871736  0.08440248  0.00000000       0.010
   0.06747202 -0.12984997  0.00000000       0.010
  -0.03373601  0.09738747  0.00000000       0.010
   0.06747202 -0.07790998  0.00000000       0.010
  -0.03373601  0.11037247  0.00000000       0.010
   0.07871736 -0.12335747  0.00000000       0.010
  -0.05622668  0.07141748  0.00000000       0.010
   0.08996269 -0.11686497  0.00000000       0.010
  -0.03373601  0.12335747  0.00000000       0.010
   0.08996269 -0.09089498  0.00000000       0.010
  -0.03373601  0.08440248  0.00000000       0.010
   0.05622668  0.07141748  0.00000000       0.010
  -0.03373601  0.05843248  0.00000000       0.010
  -0.06747202  0.00000000  0.00000000       0.010
  -0.03373601 -0.05843248  0.00000000       0.010
   0.05622668  0.03246249  0.00000000       0.010
   0.00000000  0.06492498  0.00000000       0.010
  -0.05622668  0.03246249  0.00000000       0.010
   0.07871736  0.01947749  0.00000000       0.010
   0.02249067  0.07790998  0.00000000       0.010
  -0.05622668  0.05843248  0.00000000       0.010
   0.02249067 -0.07790998  0.00000000       0.010
  -0.05622668 -0.05843248  0.00000000       0.010
  -0.07871736  0.01947749  0.00000000       0.010
  -0.07871736  0.11037247  0.00000000       0.010
   0.04498135 -0.11686497  0.00000000       0.010
  -0.05622668  0.08440248  0.00000000       0.010
   0.04498135 -0.09089498  0.00000000       0.010
  -0.05622668  0.12335747  0.00000000       0.010
   0.07871736 -0.09738747  0.00000000       0.010
  -0.05622668  0.09738747  0.00000000       0.010
   0.06747202 -0.10387997  0.00000000       0.010
  -0.05622668  0.11037247  0.00000000       0.010
   0.07871736  0.04544749  0.00000000       0.010
   0.00000000  0.09089498  0.00000000       0.010
  -0.07871736  0.04544749  0.00000000       0.010
  -0.07871736  0.13634246  0.00000000       0.010
   0.02249067 -0.10387997  0.00000000       0.010
  -0.07871736  0.07141748  0.00000000       0.010
 
 k-points in reciprocal lattice and weights: 0.1.Ir1.Au12                            
   0.06250000  0.06250000  0.00000000       0.010
   0.00000000  0.06250000  0.00000000       0.010
  -0.06250000  0.00000000  0.00000000       0.010
   0.18750000  0.06250000  0.00000000       0.010
   0.12500000  0.18750000  0.00000000       0.010
  -0.06250000  0.12500000  0.00000000       0.010
   0.12500000 -0.06250000  0.00000000       0.010
  -0.06250000 -0.18750000  0.00000000       0.010
  -0.18750000 -0.12500000  0.00000000       0.010
   0.31250000  0.06250000  0.00000000       0.010
   0.25000000  0.31250000  0.00000000       0.010
  -0.06250000  0.25000000  0.00000000       0.010
   0.25000000 -0.06250000  0.00000000       0.010
  -0.06250000 -0.31250000  0.00000000       0.010
  -0.31250000 -0.25000000  0.00000000       0.010
   0.43750000  0.06250000  0.00000000       0.010
   0.37500000  0.43750000  0.00000000       0.010
  -0.06250000  0.37500000  0.00000000       0.010
   0.37500000 -0.06250000  0.00000000       0.010
  -0.06250000 -0.43750000  0.00000000       0.010
  -0.43750000 -0.37500000  0.00000000       0.010
  -0.43750000  0.06250000  0.00000000       0.010
   0.50000000 -0.43750000  0.00000000       0.010
  -0.06250000  0.50000000  0.00000000       0.010
   0.50000000 -0.06250000  0.00000000       0.010
  -0.06250000  0.43750000  0.00000000       0.010
   0.43750000  0.50000000  0.00000000       0.010
  -0.31250000  0.06250000  0.00000000       0.010
  -0.37500000 -0.31250000  0.00000000       0.010
  -0.06250000 -0.37500000  0.00000000       0.010
  -0.37500000 -0.06250000  0.00000000       0.010
  -0.06250000  0.31250000  0.00000000       0.010
   0.31250000  0.37500000  0.00000000       0.010
  -0.18750000  0.06250000  0.00000000       0.010
  -0.25000000 -0.18750000  0.00000000       0.010
  -0.06250000 -0.25000000  0.00000000       0.010
  -0.25000000 -0.06250000  0.00000000       0.010
  -0.06250000  0.18750000  0.00000000       0.010
   0.18750000  0.25000000  0.00000000       0.010
  -0.06250000  0.06250000  0.00000000       0.010
  -0.12500000 -0.06250000  0.00000000       0.010
  -0.06250000 -0.12500000  0.00000000       0.010
   0.18750000  0.18750000  0.00000000       0.010
   0.00000000  0.18750000  0.00000000       0.010
  -0.18750000  0.00000000  0.00000000       0.010
   0.31250000  0.18750000  0.00000000       0.010
   0.12500000  0.31250000  0.00000000       0.010
  -0.18750000  0.12500000  0.00000000       0.010
   0.12500000 -0.18750000  0.00000000       0.010
  -0.18750000 -0.31250000  0.00000000       0.010
  -0.31250000 -0.12500000  0.00000000       0.010
   0.43750000  0.18750000  0.00000000       0.010
   0.25000000  0.43750000  0.00000000       0.010
  -0.18750000  0.25000000  0.00000000       0.010
   0.25000000 -0.18750000  0.00000000       0.010
  -0.18750000 -0.43750000  0.00000000       0.010
  -0.43750000 -0.25000000  0.00000000       0.010
  -0.43750000  0.18750000  0.00000000       0.010
   0.37500000 -0.43750000  0.00000000       0.010
  -0.18750000  0.37500000  0.00000000       0.010
   0.37500000 -0.18750000  0.00000000       0.010
  -0.18750000  0.43750000  0.00000000       0.010
   0.43750000 -0.37500000  0.00000000       0.010
  -0.31250000  0.18750000  0.00000000       0.010
   0.50000000 -0.31250000  0.00000000       0.010
  -0.18750000  0.50000000  0.00000000       0.010
   0.50000000 -0.18750000  0.00000000       0.010
  -0.18750000  0.31250000  0.00000000       0.010
   0.31250000  0.50000000  0.00000000       0.010
  -0.18750000  0.18750000  0.00000000       0.010
  -0.37500000 -0.18750000  0.00000000       0.010
  -0.18750000 -0.37500000  0.00000000       0.010
   0.31250000  0.31250000  0.00000000       0.010
   0.00000000  0.31250000  0.00000000       0.010
  -0.31250000  0.00000000  0.00000000       0.010
   0.43750000  0.31250000  0.00000000       0.010
   0.12500000  0.43750000  0.00000000       0.010
  -0.31250000  0.12500000  0.00000000       0.010
   0.12500000 -0.31250000  0.00000000       0.010
  -0.31250000 -0.43750000  0.00000000       0.010
  -0.43750000 -0.12500000  0.00000000       0.010
  -0.43750000  0.31250000  0.00000000       0.010
   0.25000000 -0.43750000  0.00000000       0.010
  -0.31250000  0.25000000  0.00000000       0.010
   0.25000000 -0.31250000  0.00000000       0.010
  -0.31250000  0.43750000  0.00000000       0.010
   0.43750000 -0.25000000  0.00000000       0.010
  -0.31250000  0.31250000  0.00000000       0.010
   0.37500000 -0.31250000  0.00000000       0.010
  -0.31250000  0.37500000  0.00000000       0.010
   0.43750000  0.43750000  0.00000000       0.010
   0.00000000  0.43750000  0.00000000       0.010
  -0.43750000 -0.00000000  0.00000000       0.010
  -0.43750000  0.43750000  0.00000000       0.010
   0.12500000 -0.43750000  0.00000000       0.010
  -0.43750000  0.12500000  0.00000000       0.010
 
 position of ions in fractional coordinates (direct lattice) 
   0.00784648  0.98584322  0.62889807
   0.99735554  0.97552004  0.69636905
   0.04645190  0.36709801  0.66742722
   0.87661570  0.18876977  0.70901786
   0.89899240  0.85471904  0.70609578
   0.21285897  0.87604033  0.70822567
   0.49819347  0.00559592  0.39396566
   0.51006533  0.49032437  0.61850259
   0.00931511  0.48984939  0.62083592
   0.51147655  0.98910137  0.61863738
   0.33477317  0.83256283  0.54553192
   0.00067006  0.00425022  0.39415604
   0.83996289  0.32756575  0.54477008
   0.66797868  0.66982232  0.46929652
   0.16717432  0.66995668  0.47050539
   0.66793732  0.17047771  0.46896247
   0.16827435  0.16885874  0.47025601
   0.49730032  0.50629180  0.39363379
   0.00061069  0.50440422  0.39403013
   0.33926648  0.33008759  0.54403254
   0.84135048  0.82984841  0.54562427
 
 position of ions in cartesian coordinates  (Angst):
   2.78319859  4.74510728 19.37443755
   8.25406331  4.69541922 21.45301313
   1.27831271  1.76693354 20.56140346
   5.39668464  0.90859558 21.84268456
   7.37167735  4.11397415 21.75266415
   3.61749467  4.21659880 21.81827963
   2.78443987  0.02693453 12.13688431
   4.19744824  2.36005245 19.05418428
   1.41302908  2.35776628 19.12606708
   5.59135783  4.76078956 19.05833696
   4.17425569  4.00733083 16.80617999
   0.01553516  0.02045734 12.14274909
   5.57867775  1.57665498 16.78270981
   5.57392065  3.22402052 14.45759890
   2.79089384  3.22466721 14.49484065
   4.18604723  0.82055139 14.44730779
   1.40449171  0.81275890 14.48715797
   4.17087453  2.43690767 12.12666017
   1.40509798  2.42782227 12.13887023
   2.80288557  1.58879322 16.75998865
   6.98219794  3.99426564 16.80902481
 


--------------------------------------------------------------------------------------------------------


 k-point  1 :   0.0625 0.0625 0.0000  plane waves:   12325
 k-point  2 :   0.0000 0.0625 0.0000  plane waves:   12325
 k-point  3 :  -0.0625 0.0000 0.0000  plane waves:   12325
 k-point  4 :   0.1875 0.0625 0.0000  plane waves:   12294
 k-point  5 :   0.1250 0.1875 0.0000  plane waves:   12294
 k-point  6 :  -0.0625 0.1250 0.0000  plane waves:   12294
 k-point  7 :   0.1250-0.0625 0.0000  plane waves:   12294
 k-point  8 :  -0.0625-0.1875 0.0000  plane waves:   12294
 k-point  9 :  -0.1875-0.1250 0.0000  plane waves:   12294
 k-point 10 :   0.3125 0.0625 0.0000  plane waves:   12263
 k-point 11 :   0.2500 0.3125 0.0000  plane waves:   12263
 k-point 12 :  -0.0625 0.2500 0.0000  plane waves:   12263
 k-point 13 :   0.2500-0.0625 0.0000  plane waves:   12263
 k-point 14 :  -0.0625-0.3125 0.0000  plane waves:   12263
 k-point 15 :  -0.3125-0.2500 0.0000  plane waves:   12263
 k-point 16 :   0.4375 0.0625 0.0000  plane waves:   12221
 k-point 17 :   0.3750 0.4375 0.0000  plane waves:   12221
 k-point 18 :  -0.0625 0.3750 0.0000  plane waves:   12221
 k-point 19 :   0.3750-0.0625 0.0000  plane waves:   12221
 k-point 20 :  -0.0625-0.4375 0.0000  plane waves:   12221
 k-point 21 :  -0.4375-0.3750 0.0000  plane waves:   12221
 k-point 22 :  -0.4375 0.0625 0.0000  plane waves:   12211
 k-point 23 :   0.5000-0.4375 0.0000  plane waves:   12211
 k-point 24 :  -0.0625 0.5000 0.0000  plane waves:   12211
 k-point 25 :   0.5000-0.0625 0.0000  plane waves:   12211
 k-point 26 :  -0.0625 0.4375 0.0000  plane waves:   12211
 k-point 27 :   0.4375 0.5000 0.0000  plane waves:   12211
 k-point 28 :  -0.3125 0.0625 0.0000  plane waves:   12242
 k-point 29 :  -0.3750-0.3125 0.0000  plane waves:   12242
 k-point 30 :  -0.0625-0.3750 0.0000  plane waves:   12242
 k-point 31 :  -0.3750-0.0625 0.0000  plane waves:   12242
 k-point 32 :  -0.0625 0.3125 0.0000  plane waves:   12242
 k-point 33 :   0.3125 0.3750 0.0000  plane waves:   12242
 k-point 34 :  -0.1875 0.0625 0.0000  plane waves:   12280
 k-point 35 :  -0.2500-0.1875 0.0000  plane waves:   12280
 k-point 36 :  -0.0625-0.2500 0.0000  plane waves:   12280
 k-point 37 :  -0.2500-0.0625 0.0000  plane waves:   12280
 k-point 38 :  -0.0625 0.1875 0.0000  plane waves:   12280
 k-point 39 :   0.1875 0.2500 0.0000  plane waves:   12280
 k-point 40 :  -0.0625 0.0625 0.0000  plane waves:   12329
 k-point 41 :  -0.1250-0.0625 0.0000  plane waves:   12329
 k-point 42 :  -0.0625-0.1250 0.0000  plane waves:   12329
 k-point 43 :   0.1875 0.1875 0.0000  plane waves:   12277
 k-point 44 :   0.0000 0.1875 0.0000  plane waves:   12277
 k-point 45 :  -0.1875 0.0000 0.0000  plane waves:   12277
 k-point 46 :   0.3125 0.1875 0.0000  plane waves:   12288
 k-point 47 :   0.1250 0.3125 0.0000  plane waves:   12288
 k-point 48 :  -0.1875 0.1250 0.0000  plane waves:   12288
 k-point 49 :   0.1250-0.1875 0.0000  plane waves:   12288
 k-point 50 :  -0.1875-0.3125 0.0000  plane waves:   12288
 k-point 51 :  -0.3125-0.1250 0.0000  plane waves:   12288
 k-point 52 :   0.4375 0.1875 0.0000  plane waves:   12234
 k-point 53 :   0.2500 0.4375 0.0000  plane waves:   12234
 k-point 54 :  -0.1875 0.2500 0.0000  plane waves:   12234
 k-point 55 :   0.2500-0.1875 0.0000  plane waves:   12234
 k-point 56 :  -0.1875-0.4375 0.0000  plane waves:   12234
 k-point 57 :  -0.4375-0.2500 0.0000  plane waves:   12234
 k-point 58 :  -0.4375 0.1875 0.0000  plane waves:   12216
 k-point 59 :   0.3750-0.4375 0.0000  plane waves:   12216
 k-point 60 :  -0.1875 0.3750 0.0000  plane waves:   12216
 k-point 61 :   0.3750-0.1875 0.0000  plane waves:   12216
 k-point 62 :  -0.1875 0.4375 0.0000  plane waves:   12216
 k-point 63 :   0.4375-0.3750 0.0000  plane waves:   12216
 k-point 64 :  -0.3125 0.1875 0.0000  plane waves:   12215
 k-point 65 :   0.5000-0.3125 0.0000  plane waves:   12215
 k-point 66 :  -0.1875 0.5000 0.0000  plane waves:   12215
 k-point 67 :   0.5000-0.1875 0.0000  plane waves:   12215
 k-point 68 :  -0.1875 0.3125 0.0000  plane waves:   12215
 k-point 69 :   0.3125 0.5000 0.0000  plane waves:   12215
 k-point 70 :  -0.1875 0.1875 0.0000  plane waves:   12289
 k-point 71 :  -0.3750-0.1875 0.0000  plane waves:   12289
 k-point 72 :  -0.1875-0.3750 0.0000  plane waves:   12289
 k-point 73 :   0.3125 0.3125 0.0000  plane waves:   12275
 k-point 74 :   0.0000 0.3125 0.0000  plane waves:   12275
 k-point 75 :  -0.3125 0.0000 0.0000  plane waves:   12275
 k-point 76 :   0.4375 0.3125 0.0000  plane waves:   12239
 k-point 77 :   0.1250 0.4375 0.0000  plane waves:   12239
 k-point 78 :  -0.3125 0.1250 0.0000  plane waves:   12239
 k-point 79 :   0.1250-0.3125 0.0000  plane waves:   12239
 k-point 80 :  -0.3125-0.4375 0.0000  plane waves:   12239
 k-point 81 :  -0.4375-0.1250 0.0000  plane waves:   12239
 k-point 82 :  -0.4375 0.3125 0.0000  plane waves:   12235
 k-point 83 :   0.2500-0.4375 0.0000  plane waves:   12235
 k-point 84 :  -0.3125 0.2500 0.0000  plane waves:   12235
 k-point 85 :   0.2500-0.3125 0.0000  plane waves:   12235
 k-point 86 :  -0.3125 0.4375 0.0000  plane waves:   12235
 k-point 87 :   0.4375-0.2500 0.0000  plane waves:   12235
 k-point 88 :  -0.3125 0.3125 0.0000  plane waves:   12232
 k-point 89 :   0.3750-0.3125 0.0000  plane waves:   12232
 k-point 90 :  -0.3125 0.3750 0.0000  plane waves:   12232
 k-point 91 :   0.4375 0.4375 0.0000  plane waves:   12200
 k-point 92 :   0.0000 0.4375 0.0000  plane waves:   12200
 k-point 93 :  -0.4375-0.0000 0.0000  plane waves:   12200
 k-point 94 :  -0.4375 0.4375 0.0000  plane waves:   12214
 k-point 95 :   0.1250-0.4375 0.0000  plane waves:   12214
 k-point 96 :  -0.4375 0.1250 0.0000  plane waves:   12214

 maximum and minimum number of plane-waves per node :      3101     2992

 maximum number of plane-waves:     12329
 maximum index in each direction: 
   IXMAX=    8   IYMAX=    8   IZMAX=   46
   IXMIN=   -8   IYMIN=   -8   IZMIN=  -46


 real space projection operators:
  total allocation   :       5104.12 KBytes
  max/ min on nodes  :       1277.35       1274.74


 parallel 3D FFT for wavefunctions:
    minimum data exchange during FFTs selected (reduces bandwidth)
 parallel 3D FFT for charge:
    minimum data exchange during FFTs selected (reduces bandwidth)


 total amount of memory used by VASP MPI-rank0   164323. kBytes
=======================================================================

   base      :      30000. kBytes
   nonlr-proj:       2370. kBytes
   fftplans  :       2967. kBytes
   grid      :       6321. kBytes
   one-center:         93. kBytes
   wavefun   :     122572. kBytes
 
     INWAV:  cpu time    0.0000: real time    0.0001
 Broyden mixing: mesh for mixing (old mesh)
   NGX = 17   NGY = 17   NGZ = 93
  (NGX  = 56   NGY  = 56   NGZ  =288)
  gives a total of  26877 points

 initial charge density was supplied:
 charge density of overlapping atoms calculated
 number of electron     168.0000000 magnetization 
 keeping initial charge density in first step


--------------------------------------------------------------------------------------------------------


 Maximum index for non-local projection operator          542
 Maximum index for augmentation-charges          716 (set IRDMAX)


--------------------------------------------------------------------------------------------------------


 First call to EWALD:  gamma=   0.189
 Maximum number of real-space cells 5x 5x 1
 Maximum number of reciprocal cells 2x 2x 8

    FEWALD:  cpu time    0.0013: real time    0.0013


--------------------------------------- Iteration      1(   1)  ---------------------------------------


    POTLOK:  cpu time    0.0262: real time    0.0325
    SETDIJ:  cpu time    0.0034: real time    0.0034
     EDDAV:  cpu time   14.1190: real time   14.1645
       DOS:  cpu time    0.0077: real time    0.0077
    --------------------------------------------
      LOOP:  cpu time   14.1563: real time   14.2082

 eigenvalue-minimisations  : 19288
 total energy-change (2. order) : 0.1028880E+04  (-0.5831607E+04)
 number of electron     168.0000000 magnetization 
 augmentation part      168.0000000 magnetization 

 Free energy of the ion-electron system (eV)
  ---------------------------------------------------
  alpha Z        PSCENC =       324.87461712
  Ewald energy   TEWEN  =    100737.64675165
  -Hartree energ DENC   =   -113026.00159157
  -exchange      EXHF   =         0.00000000
  -V(xc)+E(xc)   XCENC  =        69.12896463
  PAW double counting   =     11288.27476651   -10829.50941267
  entropy T*S    EENTRO =         0.00292979
  eigenvalues    EBANDS =       573.82579647
  atomic energy  EATOM  =     11890.63736546
  Solvation  Ediel_sol  =         0.00000000
  ---------------------------------------------------
  free energy    TOTEN  =      1028.88018739 eV

  energy without entropy =     1028.87725760  energy(sigma->0) =     1028.87921079


--------------------------------------------------------------------------------------------------------




--------------------------------------- Iteration      1(   2)  ---------------------------------------


     EDDAV:  cpu time   16.7894: real time   16.8314
       DOS:  cpu time    0.0079: real time    0.0079
    --------------------------------------------
      LOOP:  cpu time   16.7973: real time   16.8393

 eigenvalue-minimisations  : 24088
 total energy-change (2. order) :-0.1058496E+04  (-0.9860880E+03)
 number of electron     168.0000000 magnetization 
 augmentation part      168.0000000 magnetization 

 Free energy of the ion-electron system (eV)
  ---------------------------------------------------
  alpha Z        PSCENC =       324.87461712
  Ewald energy   TEWEN  =    100737.64675165
  -Hartree energ DENC   =   -113026.00159157
  -exchange      EXHF   =         0.00000000
  -V(xc)+E(xc)   XCENC  =        69.12896463
  PAW double counting   =     11288.27476651   -10829.50941267
  entropy T*S    EENTRO =         0.00256914
  eigenvalues    EBANDS =      -484.66985449
  atomic energy  EATOM  =     11890.63736546
  Solvation  Ediel_sol  =         0.00000000
  ---------------------------------------------------
  free energy    TOTEN  =       -29.61582422 eV

  energy without entropy =      -29.61839337  energy(sigma->0) =      -29.61668060


--------------------------------------------------------------------------------------------------------




--------------------------------------- Iteration      1(   3)  ---------------------------------------


     EDDAV:  cpu time   16.2029: real time   16.2498
       DOS:  cpu time    0.0088: real time    0.0088
    --------------------------------------------
      LOOP:  cpu time   16.2117: real time   16.2586

 eigenvalue-minimisations  : 23104
 total energy-change (2. order) :-0.9136592E+02  (-0.8449784E+02)
 number of electron     168.0000000 magnetization 
 augmentation part      168.0000000 magnetization 

 Free energy of the ion-electron system (eV)
  ---------------------------------------------------
  alpha Z        PSCENC =       324.87461712
  Ewald energy   TEWEN  =    100737.64675165
  -Hartree energ DENC   =   -113026.00159157
  -exchange      EXHF   =         0.00000000
  -V(xc)+E(xc)   XCENC  =        69.12896463
  PAW double counting   =     11288.27476651   -10829.50941267
  entropy T*S    EENTRO =        -0.01981772
  eigenvalues    EBANDS =      -576.01338633
  atomic energy  EATOM  =     11890.63736546
  Solvation  Ediel_sol  =         0.00000000
  ---------------------------------------------------
  free energy    TOTEN  =      -120.98174292 eV

  energy without entropy =     -120.96192520  energy(sigma->0) =     -120.97513701


--------------------------------------------------------------------------------------------------------




--------------------------------------- Iteration      1(   4)  ---------------------------------------


     EDDAV:  cpu time   17.5298: real time   17.5723
       DOS:  cpu time    0.0089: real time    0.0089
    --------------------------------------------
      LOOP:  cpu time   17.5387: real time   17.5813

 eigenvalue-minimisations  : 25620
 total energy-change (2. order) :-0.4398068E+01  (-0.4184200E+01)
 number of electron     168.0000000 magnetization 
 augmentation part      168.0000000 magnetization 

 Free energy of the ion-electron system (eV)
  ---------------------------------------------------
  alpha Z        PSCENC =       324.87461712
  Ewald energy   TEWEN  =    100737.64675165
  -Hartree energ DENC   =   -113026.00159157
  -exchange      EXHF   =         0.00000000
  -V(xc)+E(xc)   XCENC  =        69.12896463
  PAW double counting   =     11288.27476651   -10829.50941267
  entropy T*S    EENTRO =        -0.03076981
  eigenvalues    EBANDS =      -580.40050197
  atomic energy  EATOM  =     11890.63736546
  Solvation  Ediel_sol  =         0.00000000
  ---------------------------------------------------
  free energy    TOTEN  =      -125.37981065 eV

  energy without entropy =     -125.34904084  energy(sigma->0) =     -125.36955404


--------------------------------------------------------------------------------------------------------




--------------------------------------- Iteration      1(   5)  ---------------------------------------


     EDDAV:  cpu time   18.1767: real time   18.2217
       DOS:  cpu time    0.0089: real time    0.0089
    CHARGE:  cpu time    0.7153: real time    0.7172
    MIXING:  cpu time    0.0011: real time    0.0011
    --------------------------------------------
      LOOP:  cpu time   18.9020: real time   18.9488

 eigenvalue-minimisations  : 26648
 total energy-change (2. order) :-0.1351755E+00  (-0.1340240E+00)
 number of electron     167.9999990 magnetization 
 augmentation part       46.7974336 magnetization 

 Broyden mixing:
  rms(total) = 0.43175E+01    rms(broyden)= 0.43172E+01
  rms(prec ) = 0.43661E+01
  weight for this iteration     100.00

 Free energy of the ion-electron system (eV)
  ---------------------------------------------------
  alpha Z        PSCENC =       324.87461712
  Ewald energy   TEWEN  =    100737.64675165
  -Hartree energ DENC   =   -113026.00159157
  -exchange      EXHF   =         0.00000000
  -V(xc)+E(xc)   XCENC  =        69.12896463
  PAW double counting   =     11288.27476651   -10829.50941267
  entropy T*S    EENTRO =        -0.03088346
  eigenvalues    EBANDS =      -580.53556381
  atomic energy  EATOM  =     11890.63736546
  Solvation  Ediel_sol  =         0.00000000
  ---------------------------------------------------
  free energy    TOTEN  =      -125.51498615 eV

  energy without entropy =     -125.48410269  energy(sigma->0) =     -125.50469166


--------------------------------------------------------------------------------------------------------




--------------------------------------- Iteration      1(   6)  ---------------------------------------


    POTLOK:  cpu time    0.0240: real time    0.0243
    SETDIJ:  cpu time    0.0033: real time    0.0034
     EDDAV:  cpu time   16.1202: real time   16.1588
       DOS:  cpu time    0.0100: real time    0.0101
    CHARGE:  cpu time    0.7297: real time    0.7314
    MIXING:  cpu time    0.0011: real time    0.0011
    --------------------------------------------
      LOOP:  cpu time   16.8883: real time   16.9290

 eigenvalue-minimisations  : 22948
 total energy-change (2. order) : 0.7218795E+01  (-0.3626102E+01)
 number of electron     167.9999993 magnetization 
 augmentation part       49.9080011 magnetization 

 Broyden mixing:
  rms(total) = 0.32511E+01    rms(broyden)= 0.32510E+01
  rms(prec ) = 0.33631E+01
  weight for this iteration     100.00

 eigenvalues of (default mixing * dielectric matrix)
  average eigenvalue GAMMA=   1.1085
  1.1085

 Free energy of the ion-electron system (eV)
  ---------------------------------------------------
  alpha Z        PSCENC =       324.87461712
  Ewald energy   TEWEN  =    100737.64675165
  -Hartree energ DENC   =   -112796.75648647
  -exchange      EXHF   =         0.00000000
  -V(xc)+E(xc)   XCENC  =        65.84375811
  PAW double counting   =     12534.08835078   -12099.60491421
  entropy T*S    EENTRO =        -0.00216638
  eigenvalues    EBANDS =      -775.02346688
  atomic energy  EATOM  =     11890.63736546
  Solvation  Ediel_sol  =         0.00000000
  ---------------------------------------------------
  free energy    TOTEN  =      -118.29619082 eV

  energy without entropy =     -118.29402444  energy(sigma->0) =     -118.29546869


--------------------------------------------------------------------------------------------------------




--------------------------------------- Iteration      1(   7)  ---------------------------------------


    POTLOK:  cpu time    0.0223: real time    0.0281
    SETDIJ:  cpu time    0.0033: real time    0.0033
     EDDAV:  cpu time   18.3266: real time   18.3710
       DOS:  cpu time    0.0096: real time    0.0097
    CHARGE:  cpu time    0.7149: real time    0.7166
    MIXING:  cpu time    0.0012: real time    0.0012
    --------------------------------------------
      LOOP:  cpu time   19.0780: real time   19.1300

 eigenvalue-minimisations  : 26964
 total energy-change (2. order) :-0.2054810E+02  (-0.8663162E+01)
 number of electron     167.9999993 magnetization 
 augmentation part       48.9516809 magnetization 

 Broyden mixing:
  rms(total) = 0.44064E+01    rms(broyden)= 0.44063E+01
  rms(prec ) = 0.48581E+01
  weight for this iteration     100.00

 eigenvalues of (default mixing * dielectric matrix)
  average eigenvalue GAMMA=   1.0717
  1.8816  0.2617

 Free energy of the ion-electron system (eV)
  ---------------------------------------------------
  alpha Z        PSCENC =       324.87461712
  Ewald energy   TEWEN  =    100737.64675165
  -Hartree energ DENC   =   -113007.03481923
  -exchange      EXHF   =         0.00000000
  -V(xc)+E(xc)   XCENC  =        65.40625084
  PAW double counting   =     13464.26022045   -13038.27578055
  entropy T*S    EENTRO =        -0.00405942
  eigenvalues    EBANDS =      -576.35483928
  atomic energy  EATOM  =     11890.63736546
  Solvation  Ediel_sol  =         0.00000000
  ---------------------------------------------------
  free energy    TOTEN  =      -138.84429296 eV

  energy without entropy =     -138.84023354  energy(sigma->0) =     -138.84293982


--------------------------------------------------------------------------------------------------------




--------------------------------------- Iteration      1(   8)  ---------------------------------------


    POTLOK:  cpu time    0.0236: real time    0.0239
    SETDIJ:  cpu time    0.0034: real time    0.0034
     EDDAV:  cpu time   19.5568: real time   19.6071
       DOS:  cpu time    0.0098: real time    0.0098
    CHARGE:  cpu time    0.7171: real time    0.7188
    MIXING:  cpu time    0.0010: real time    0.0011
    --------------------------------------------
      LOOP:  cpu time   20.3117: real time   20.3641

 eigenvalue-minimisations  : 29296
 total energy-change (2. order) : 0.1997453E+02  (-0.2969751E+01)
 number of electron     168.0000001 magnetization 
 augmentation part       50.2344270 magnetization 

 Broyden mixing:
  rms(total) = 0.17563E+01    rms(broyden)= 0.17562E+01
  rms(prec ) = 0.21915E+01
  weight for this iteration     100.00

 eigenvalues of (default mixing * dielectric matrix)
  average eigenvalue GAMMA=   0.9454
  2.0272  0.5254  0.2837

 Free energy of the ion-electron system (eV)
  ---------------------------------------------------
  alpha Z        PSCENC =       324.87461712
  Ewald energy   TEWEN  =    100737.64675165
  -Hartree energ DENC   =   -112853.79704959
  -exchange      EXHF   =         0.00000000
  -V(xc)+E(xc)   XCENC  =        64.84328482
  PAW double counting   =     14437.24868014   -14021.93479494
  entropy T*S    EENTRO =         0.00307165
  eigenvalues    EBANDS =      -698.39169383
  atomic energy  EATOM  =     11890.63736546
  Solvation  Ediel_sol  =         0.00000000
[...]
     21      -5.1010      2.00000
     22      -5.0264      2.00000
     23      -4.9800      2.00000
     24      -4.8902      2.00000
     25      -4.7808      2.00000
     26      -4.7334      2.00000
     27      -4.6430      2.00000
     28      -4.6182      2.00000
     29      -4.5767      2.00000
     30      -4.5073      2.00000
     31      -4.4470      2.00000
     32      -4.4236      2.00000
     33      -4.2375      2.00000
     34      -4.2219      2.00000
     35      -4.1209      2.00000
     36      -4.0666      2.00000
     37      -3.9603      2.00000
     38      -3.9025      2.00000
     39      -3.8454      2.00000
     40      -3.7617      2.00000
     41      -3.6407      2.00000
     42      -3.5971      2.00000
     43      -3.5260      2.00000
     44      -3.4846      2.00000
     45      -3.4052      2.00000
     46      -3.3510      2.00000
     47      -3.2424      2.00000
     48      -3.2028      2.00000
     49      -3.1495      2.00000
     50      -3.1099      2.00000
     51      -3.0597      2.00000
     52      -3.0163      2.00000
     53      -2.9815      2.00000
     54      -2.9371      2.00000
     55      -2.8897      2.00000
     56      -2.7737      2.00000
     57      -2.6706      2.00000
     58      -2.4700      2.00000
     59      -2.3915      2.00000
     60      -2.2867      2.00000
     61      -2.2658      2.00000
     62      -2.2392      2.00000
     63      -2.0990      2.00000
     64      -2.0302      2.00000
     65      -1.9907      2.00000
     66      -1.9278      2.00000
     67      -1.8749      2.00000
     68      -1.8141      2.00000
     69      -1.7509      2.00000
     70      -1.6155      2.00000
     71      -1.5102      2.00000
     72      -1.4763      2.00000
     73      -1.3998      2.00000
     74      -1.3604      2.00000
     75      -1.2873      2.00000
     76      -1.1509      2.00000
     77      -1.0722      2.00000
     78      -0.9414      2.00000
     79      -0.8398      2.00005
     80      -0.8046      2.00013
     81      -0.7012      2.00191
     82      -0.4771      2.06192
     83      -0.4021      2.05864
     84      -0.3171      1.85883
     85      -0.2613      1.54372
     86      -0.1952      1.02037
     87      -0.0998      0.29959
     88      -0.0357      0.02760
     89       0.0660     -0.06957
     90       0.6150     -0.00000
     91       0.8522     -0.00000
     92       1.1420     -0.00000
     93       1.4520     -0.00000
     94       2.0422     -0.00000
     95       2.6449     -0.00000
     96       2.9271     -0.00000
     97       3.2676     -0.00000
     98       3.7915     -0.00000
     99       4.1147     -0.00000
    100       4.5334     -0.00000

 k-point    96 :      -0.4375    0.1250    0.0000
  band No.  band energies     occupation 
      1     -12.7853      2.00000
      2      -7.7294      2.00000
      3      -7.6273      2.00000
      4      -7.0296      2.00000
      5      -6.6811      2.00000
      6      -6.4779      2.00000
      7      -6.2531      2.00000
      8      -6.1656      2.00000
      9      -6.0819      2.00000
     10      -5.9324      2.00000
     11      -5.8886      2.00000
     12      -5.7578      2.00000
     13      -5.6986      2.00000
     14      -5.5957      2.00000
     15      -5.5607      2.00000
     16      -5.5171      2.00000
     17      -5.4094      2.00000
     18      -5.3057      2.00000
     19      -5.2652      2.00000
     20      -5.1507      2.00000
     21      -5.0967      2.00000
     22      -4.9890      2.00000
     23      -4.9757      2.00000
     24      -4.9230      2.00000
     25      -4.8443      2.00000
     26      -4.7232      2.00000
     27      -4.6598      2.00000
     28      -4.5978      2.00000
     29      -4.5767      2.00000
     30      -4.5143      2.00000
     31      -4.4615      2.00000
     32      -4.4142      2.00000
     33      -4.3067      2.00000
     34      -4.1968      2.00000
     35      -4.1653      2.00000
     36      -4.0900      2.00000
     37      -3.9503      2.00000
     38      -3.9235      2.00000
     39      -3.8372      2.00000
     40      -3.7643      2.00000
     41      -3.6889      2.00000
     42      -3.6526      2.00000
     43      -3.5569      2.00000
     44      -3.4950      2.00000
     45      -3.4627      2.00000
     46      -3.3902      2.00000
     47      -3.2514      2.00000
     48      -3.1823      2.00000
     49      -3.1328      2.00000
     50      -3.0737      2.00000
     51      -3.0603      2.00000
     52      -3.0235      2.00000
     53      -2.9664      2.00000
     54      -2.9159      2.00000
     55      -2.8163      2.00000
     56      -2.7480      2.00000
     57      -2.7058      2.00000
     58      -2.4523      2.00000
     59      -2.3804      2.00000
     60      -2.3346      2.00000
     61      -2.2729      2.00000
     62      -2.2427      2.00000
     63      -2.1636      2.00000
     64      -2.0810      2.00000
     65      -2.0552      2.00000
     66      -1.9802      2.00000
     67      -1.8686      2.00000
     68      -1.7346      2.00000
     69      -1.6638      2.00000
     70      -1.6057      2.00000
     71      -1.5777      2.00000
     72      -1.4664      2.00000
     73      -1.3864      2.00000
     74      -1.3190      2.00000
     75      -1.2704      2.00000
     76      -1.2039      2.00000
     77      -0.9844      2.00000
     78      -0.9560      2.00000
     79      -0.9180      2.00000
     80      -0.7310      2.00095
     81      -0.5471      2.03109
     82      -0.4816      2.06012
     83      -0.3969      2.05422
     84      -0.2742      1.62982
     85      -0.2135      1.17387
     86      -0.1623      0.74518
     87      -0.0616      0.11276
     88       0.0390     -0.06946
     89       0.1501     -0.03582
     90       0.3863     -0.00033
     91       0.8303     -0.00000
     92       1.1474     -0.00000
     93       1.4642     -0.00000
     94       1.9462     -0.00000
     95       2.4203     -0.00000
     96       2.9348     -0.00000
     97       3.3865     -0.00000
     98       3.7739     -0.00000
     99       4.2233     -0.00000
    100       4.4243     -0.00000


--------------------------------------------------------------------------------------------------------


 soft charge-density along one line, spin component           1
         0         1         2         3         4         5         6         7         8         9
 total charge-density along one line
 
 pseudopotential strength for first ion, spin component:           1
 -8.033   0.002   0.003  -0.002   0.000  -8.179   0.002   0.003
  0.002  -8.073   0.002  -0.002  -0.002   0.002  -8.218   0.002
  0.003   0.002  -8.209   0.007  -0.003   0.003   0.002  -8.351
 -0.002  -0.002   0.007  -8.072   0.002  -0.002  -0.002   0.007
  0.000  -0.002  -0.003   0.002  -8.034   0.000  -0.002  -0.003
 -8.179   0.002   0.003  -0.002   0.000  -8.309   0.002   0.003
  0.002  -8.218   0.002  -0.002  -0.002   0.002  -8.347   0.002
  0.003   0.002  -8.351   0.007  -0.003   0.003   0.002  -8.478
 -0.002  -0.002   0.007  -8.217   0.002  -0.002  -0.002   0.007
  0.000  -0.002  -0.003   0.002  -8.180   0.000  -0.002  -0.003
  0.001  -0.000   0.024  -0.002  -0.001   0.001  -0.000   0.024
  0.002  -0.000   0.035  -0.003  -0.001   0.002  -0.000   0.034
  0.002  -0.010  -0.001   0.000  -0.002   0.002  -0.010  -0.001
  0.000   0.002  -0.008   0.002  -0.000   0.000   0.002  -0.008
  0.002   0.000  -0.001  -0.010   0.002   0.002   0.000  -0.001
  0.003  -0.010  -0.001   0.000  -0.002   0.003  -0.010  -0.001
  0.000   0.002  -0.009   0.002  -0.000   0.000   0.002  -0.009
  0.002   0.000  -0.001  -0.010   0.002   0.002   0.000  -0.001
 total augmentation occupancy for first ion, spin component:           1
  5.774   0.107  -0.128   0.102  -0.057  -3.574  -0.097   0.122  -0.130   0.058  -0.094   0.056  -0.019  -0.009   0.005   0.004
  0.107   6.139  -0.102   0.053  -0.042  -0.096  -3.475   0.119  -0.053   0.007  -0.010   0.024   0.219   0.047  -0.018  -0.024
 -0.128  -0.102   3.074   0.039  -0.019   0.121   0.119  -2.397   0.052   0.003  -0.676   0.126   0.031  -0.301   0.049  -0.002
  0.102   0.053   0.039   6.142  -0.034  -0.131  -0.053   0.052  -3.503   0.028   0.058   0.016  -0.024   0.053   0.243   0.001
 -0.057  -0.042  -0.019  -0.034   5.535   0.058   0.008   0.002   0.027  -3.369   0.025  -0.017   0.024   0.018   0.031  -0.004
 -3.574  -0.096   0.121  -0.131   0.058   3.295   0.087  -0.114   0.151  -0.058   0.077  -0.049   0.008   0.007  -0.011  -0.001
 -0.097  -3.475   0.119  -0.053   0.008   0.087   2.834  -0.131   0.053   0.020   0.005  -0.020  -0.184  -0.049   0.015   0.010
  0.122   0.119  -2.397   0.052   0.002  -0.114  -0.131   3.337  -0.123   0.009   0.635  -0.112  -0.024   0.417  -0.039   0.001
 -0.130  -0.053   0.052  -3.503   0.027   0.151   0.053  -0.123   2.880  -0.022  -0.059  -0.011   0.019  -0.059  -0.206  -0.001
  0.058   0.007   0.003   0.028  -3.369  -0.058   0.020   0.009  -0.022   3.121  -0.015   0.012  -0.015  -0.015  -0.032   0.001
 -0.094  -0.010  -0.676   0.058   0.025   0.077   0.005   0.635  -0.059  -0.015   2.575  -0.575  -0.014   0.104  -0.022   0.001
  0.056   0.024   0.126   0.016  -0.017  -0.049  -0.020  -0.112  -0.011   0.012  -0.575   0.188  -0.002   0.013  -0.000  -0.000
 -0.019   0.219   0.031  -0.024   0.024   0.008  -0.184  -0.024   0.019  -0.015  -0.014  -0.002   0.225  -0.003   0.000  -0.007
 -0.009   0.047  -0.301   0.053   0.018   0.007  -0.049   0.417  -0.059  -0.015   0.104   0.013  -0.003   0.274  -0.008  -0.000
  0.005  -0.018   0.049   0.243   0.031  -0.011   0.015  -0.039  -0.206  -0.032  -0.022  -0.000   0.000  -0.008   0.226  -0.000
  0.004  -0.024  -0.002   0.001  -0.004  -0.001   0.010   0.001  -0.001   0.001   0.001  -0.000  -0.007  -0.000  -0.000   0.000
  0.001   0.002   0.007   0.002  -0.000  -0.001   0.000  -0.026   0.001   0.000  -0.009   0.002   0.000  -0.010   0.000  -0.000
  0.002   0.001  -0.003  -0.025   0.002   0.000  -0.001   0.001   0.010   0.000   0.001  -0.000  -0.000   0.000  -0.007   0.000


------------------------ aborting loop because EDIFF is reached ----------------------------------------



 DIPCOR: dipole corrections for dipol
 direction  3 min pos    21,
 dipolmoment           0.000000      0.000000     -0.309075 electrons x Angstroem
 Tr[quadrupol]      -932.628676

 energy correction for charged system         0.000000 eV
 dipol+quadrupol energy correction            0.010487 eV
 added-field ion interaction          0.000000 eV  (added to PSCEN)

 
  *************** adding dipol energy to TOTEN NOW **************** 
    CHARGE:  cpu time    0.7090: real time    0.7107
    FORLOC:  cpu time    0.0069: real time    0.0069
    FORNL :  cpu time    3.1520: real time    3.1594
    STRESS:  cpu time    9.6597: real time    9.6827
    FORCOR:  cpu time    0.0286: real time    0.0286
    FORHAR:  cpu time    0.0119: real time    0.0119
    MIXING:  cpu time    0.0041: real time    0.0042
    OFIELD:  cpu time    0.0000: real time    0.0000

  FORCE on cell =-STRESS in cart. coord.  units (eV):
  Direction    XX          YY          ZZ          XY          YZ          ZX
  --------------------------------------------------------------------------------------
  Alpha Z   324.87462   324.87462   324.87462
  Ewald  109583.83167109597.76748************    25.02912   -10.15909    -8.85200
  Hartree112103.75893112116.08542************    16.68167    -2.16025    -2.85374
  E(xc)    -737.03670  -737.02071  -740.89737     0.05954    -0.01870    -0.04957
  Local  ************************226810.47294   -41.10040     9.99584     9.90347
  n-local    47.98872    48.68432    39.56777     0.55746    -0.85534    -0.21348
  augment   837.16407   836.86508   855.07383    -0.34399     0.65053     0.63970
  Kinetic  2387.02278  2386.13844  2437.48276    -0.43814     2.58045     1.64991
  Fock        0.00000     0.00000     0.00000     0.00000     0.00000     0.00000
  -------------------------------------------------------------------------------------
  Total     -10.91069   -11.14805    -3.01338     0.44525     0.03344     0.22429
  in kB     -21.21135   -21.67279    -5.85827     0.86561     0.06500     0.43604
  external pressure =      -16.25 kB  Pullay stress =        0.00 kB


 VOLUME and BASIS-vectors are now :
 -----------------------------------------------------------------------------
  energy-cutoff  :      350.00
  volume of cell :      824.13
      direct lattice vectors                 reciprocal lattice vectors
     5.557859300  0.000000000  0.000000000     0.179925390 -0.103879972  0.000000000
     2.778929650  4.813247345  0.000000000     0.000000000  0.207759944  0.000000000
     0.000000000  0.000000000 30.806959674     0.000000000  0.000000000  0.032460198

  length of vectors
     5.557859300  5.557859300 30.806959674     0.207759944  0.207759944  0.032460198


 FORCES acting on ions
    electron-ion (+dipol)            ewald-force                    non-local-force                 convergence-correction
 -----------------------------------------------------------------------------------------------
   -.102E+02 -.454E+01 -.287E+04   0.944E+01 0.388E+01 0.287E+04   0.745E+00 0.598E+00 -.524E+01   0.244E-03 -.122E-04 -.206E-02
   0.266E+01 0.241E+01 -.135E+04   -.291E+01 -.262E+01 0.135E+04   0.164E+00 0.174E+00 -.193E+01   0.235E-04 0.295E-04 -.284E-02
   -.338E+01 0.463E+01 -.359E+03   0.333E+01 -.549E+01 0.362E+03   0.260E+00 0.116E+01 -.275E+01   -.171E-04 -.860E-04 -.460E-03
   0.527E+01 -.448E+02 -.346E+03   -.571E+01 0.499E+02 0.348E+03   0.425E+00 -.512E+01 -.198E+01   0.363E-05 -.414E-04 -.729E-03
   0.395E+02 0.251E+02 -.344E+03   -.439E+02 -.280E+02 0.345E+03   0.448E+01 0.295E+01 -.151E+01   0.310E-04 0.379E-04 -.719E-03
   -.411E+02 0.221E+02 -.345E+03   0.457E+02 -.245E+02 0.347E+03   -.461E+01 0.241E+01 -.184E+01   -.247E-04 0.237E-04 -.735E-03
   -.184E+01 0.145E+01 0.265E+04   0.182E+01 -.140E+01 -.265E+04   0.117E-01 -.219E-01 -.141E+00   -.125E-03 0.147E-03 0.110E-01
   0.139E+01 0.112E+01 -.253E+04   -.126E+01 -.105E+01 0.253E+04   -.132E+00 -.117E+00 0.132E+01   -.275E-03 0.130E-03 -.118E-02
   -.361E+01 -.664E+01 -.252E+04   0.312E+01 0.510E+01 0.253E+04   0.502E+00 0.139E+01 -.499E+01   0.205E-03 -.309E-03 -.981E-03
   0.821E+01 -.452E+01 -.254E+04   -.797E+01 0.406E+01 0.253E+04   -.317E+00 0.530E+00 0.140E+01   -.322E-03 0.251E-03 -.964E-03
   -.385E+00 -.166E+01 -.720E+03   0.155E+00 0.179E+01 0.720E+03   0.259E+00 -.181E+00 -.117E+00   -.398E-03 0.172E-03 0.162E-01
   0.178E+01 -.152E+01 0.294E+04   -.171E+01 0.147E+01 -.294E+04   -.566E-01 0.102E+00 -.715E+00   0.752E-04 -.126E-03 0.120E-01
   -.893E+00 0.145E+01 -.707E+03   0.971E+00 -.157E+01 0.707E+03   -.943E-01 0.153E+00 0.263E+00   0.174E-04 -.431E-03 0.163E-01
   0.246E+00 -.623E+01 0.115E+04   -.231E+00 0.647E+01 -.115E+04   -.202E-01 -.397E-01 0.206E+00   -.163E-03 -.146E-02 0.296E-01
   -.436E+00 -.112E+01 0.113E+04   0.381E+00 0.121E+01 -.113E+04   0.483E-01 -.758E-01 -.679E+00   0.202E-03 -.342E-03 0.287E-01
   0.462E+01 0.470E+01 0.116E+04   -.477E+01 -.481E+01 -.116E+04   0.923E-03 0.246E-01 -.870E-01   0.991E-03 0.100E-02 0.299E-01
   -.431E+01 0.362E+01 0.114E+04   0.441E+01 -.370E+01 -.114E+04   0.138E-01 -.554E-03 -.584E+00   -.941E-03 0.776E-03 0.301E-01
   -.305E+01 0.151E+01 0.295E+04   0.287E+01 -.136E+01 -.295E+04   0.214E+00 -.166E+00 -.644E+00   -.252E-03 0.545E-04 0.117E-01
   0.263E+01 -.789E+00 0.294E+04   -.250E+01 0.775E+00 -.294E+04   -.138E+00 -.135E-01 -.637E+00   0.218E-03 -.430E-04 0.119E-01
   0.797E+00 0.214E+01 -.686E+03   -.939E+00 -.199E+01 0.686E+03   0.161E+00 -.174E+00 0.232E+00   -.463E-05 0.845E-04 0.164E-01
   0.542E+00 -.239E+01 -.719E+03   -.288E+00 0.193E+01 0.719E+03   -.317E+00 0.429E+00 -.545E+00   0.457E-03 0.177E-03 0.162E-01
 -----------------------------------------------------------------------------------------------
   -.158E+01 -.399E+01 0.208E+02   -.953E-13 -.493E-13 -.148E-11   0.160E+01 0.400E+01 -.210E+02   -.549E-04 0.315E-04 0.219E+00
 
 
 POSITION                                       TOTAL-FORCE (eV/Angst)
 -----------------------------------------------------------------------------------
      2.78320      4.74511     19.37444         0.013800     -0.057239      0.100714
      8.25406      4.69542     21.45301        -0.086241     -0.034541      0.700851
      1.27831      1.76693     20.56140         0.202441      0.288394      0.127110
      5.39668      0.90860     21.84268        -0.015991     -0.055634     -0.136325
      7.37168      4.11397     21.75266         0.037872     -0.013868     -0.087926
      3.61749      4.21660     21.81828        -0.035611      0.008154     -0.124442
      2.78444      0.02693     12.13688        -0.006004      0.027990      1.172108
      4.19745      2.36005     19.05418        -0.000524     -0.045636     -0.240276
      1.41303      2.35777     19.12607         0.009961     -0.147778     -0.082076
      5.59136      4.76079     19.05834        -0.071519      0.067742     -0.268019
      4.17426      4.00733     16.80618         0.028015     -0.046266      0.045883
      0.01554      0.02046     12.14275         0.019022      0.045387     -0.108488
      5.57868      1.57665     16.78271        -0.017292      0.028627     -0.183281
      5.57392      3.22402     14.45760        -0.006334      0.192156     -0.302484
      2.79089      3.22467     14.49484        -0.007511      0.011992      0.054559
      4.18605      0.82055     14.44731        -0.152645     -0.085063     -0.322602
      1.40449      0.81276     14.48716         0.117384     -0.082936     -0.264897
      4.17087      2.43691     12.12666         0.029862     -0.017619     -0.120361
      1.40510      2.42782     12.13887        -0.013028     -0.028876     -0.117588
      2.80289      1.58879     16.75999         0.017690     -0.024079      0.160292
      6.98220      3.99427     16.80902        -0.063346     -0.030907     -0.002751
 -----------------------------------------------------------------------------------
    total drift:                                0.019310      0.010493      0.005419


--------------------------------------------------------------------------------------------------------



  FREE ENERGIE OF THE ION-ELECTRON SYSTEM (eV)
  ---------------------------------------------------
  free  energy   TOTEN  =      -115.12764107 eV

  energy  without entropy=     -115.09780578  energy(sigma->0) =     -115.11769598
 


--------------------------------------------------------------------------------------------------------


    POTLOK:  cpu time    0.0258: real time    0.0259


--------------------------------------------------------------------------------------------------------


     LOOP+:  cpu time  565.2491: real time  566.8161
    4ORBIT:  cpu time    0.0000: real time    0.0000

 total amount of memory used by VASP MPI-rank0   164323. kBytes
=======================================================================

   base      :      30000. kBytes
   nonlr-proj:       2370. kBytes
   fftplans  :       2967. kBytes
   grid      :       6321. kBytes
   one-center:         93. kBytes
   wavefun   :     122572. kBytes
 
  
  
 General timing and accounting informations for this job:
 ========================================================
  
                  Total CPU time used (sec):      573.038
                            User time (sec):      571.322
                          System time (sec):        1.716
                         Elapsed time (sec):      574.809
  
                   Maximum memory used (kb):      207148.
                   Average memory used (kb):           0.
  
                          Minor page faults:        83905
                          Major page faults:            0
                 Voluntary context switches:          755
