       N       E                     dE             d eps       ncg     rms          rms(c)
DAV:   1     0.102236948183E+04    0.10224E+04   -0.58237E+04 19264   0.103E+03
DAV:   2    -0.292855193105E+02   -0.10517E+04   -0.97611E+03 23904   0.259E+02
DAV:   3    -0.121237395174E+03   -0.91952E+02   -0.85047E+02 22968   0.759E+01
DAV:   4    -0.125671721394E+03   -0.44343E+01   -0.42198E+01 25660   0.168E+01
DAV:   5    -0.125816017201E+03   -0.14430E+00   -0.14287E+00 26876   0.299E+00    0.426E+01
DAV:   6    -0.118895155463E+03    0.69209E+01   -0.30219E+01 22000   0.207E+01    0.314E+01
DAV:   7    -0.142567475053E+03   -0.23672E+02   -0.10217E+02 23196   0.566E+01    0.443E+01
DAV:   8    -0.121076487703E+03    0.21491E+02   -0.41610E+01 24952   0.323E+01    0.207E+01
DAV:   9    -0.125020877936E+03   -0.39444E+01   -0.57077E+01 23956   0.335E+01    0.261E+01
DAV:  10    -0.124418393187E+03    0.60248E+00   -0.29406E+01 27296   0.359E+01    0.274E+01
DAV:  11    -0.118342161718E+03    0.60762E+01   -0.24404E+01 32688   0.266E+01    0.152E+01
DAV:  12    -0.116428951036E+03    0.19132E+01   -0.75953E+00 22704   0.122E+01    0.775E+00
DAV:  13    -0.116124411082E+03    0.30454E+00   -0.29326E+00 27832   0.604E+00    0.451E+00
DAV:  14    -0.116015573117E+03    0.10884E+00   -0.56433E-01 26648   0.360E+00    0.292E+00
DAV:  15    -0.116004204765E+03    0.11368E-01   -0.47968E-02 21460   0.872E-01    0.227E+00
DAV:  16    -0.116001544403E+03    0.26604E-02   -0.81998E-02 24680   0.115E+00    0.185E+00
DAV:  17    -0.115986663709E+03    0.14881E-01   -0.11998E-01 21088   0.133E+00    0.747E-01
DAV:  18    -0.115984603431E+03    0.20603E-02   -0.18915E-02 21212   0.586E-01    0.554E-01
DAV:  19    -0.115982542734E+03    0.20607E-02   -0.53038E-03 24968   0.295E-01    0.383E-01
DAV:  20    -0.115982183641E+03    0.35909E-03   -0.27807E-03 27392   0.219E-01    0.317E-01
DAV:  21    -0.115982223789E+03   -0.40148E-04   -0.17853E-03 21816   0.188E-01    0.238E-01
DAV:  22    -0.115981989605E+03    0.23418E-03   -0.41991E-04 23236   0.923E-02    0.192E-01
DAV:  23    -0.115981837485E+03    0.15212E-03   -0.36127E-04 22380   0.907E-02    0.106E-01
DAV:  24    -0.115981835561E+03    0.19232E-05   -0.14097E-04 21128   0.488E-02    0.651E-02
DAV:  25    -0.115981926454E+03   -0.90892E-04   -0.20490E-04 22704   0.624E-02    0.275E-02
DAV:  26    -0.115982009023E+03   -0.82569E-04   -0.50298E-05 13952   0.278E-02    0.275E-02
DAV:  27    -0.115982117148E+03   -0.10812E-03   -0.22149E-05 12976   0.221E-02    0.270E-02
DAV:  28    -0.115982206010E+03   -0.88862E-04   -0.75732E-06 11832   0.964E-03    0.203E-02
DAV:  29    -0.115982393413E+03   -0.18740E-03   -0.40909E-05 13168   0.227E-02    0.277E-02
DAV:  30    -0.115982473762E+03   -0.80349E-04   -0.73291E-06 12312   0.106E-02    0.228E-02
DAV:  31    -0.115982529772E+03   -0.56010E-04   -0.92501E-06 11400   0.103E-02    0.976E-03
DAV:  32    -0.115982571162E+03   -0.41391E-04   -0.27148E-06 11544   0.617E-03    0.105E-02
DAV:  33    -0.115982588542E+03   -0.17380E-04   -0.13574E-06 10816   0.469E-03    0.718E-03
DAV:  34    -0.115982604729E+03   -0.16187E-04   -0.23728E-06 11152   0.517E-03    0.331E-03
DAV:  35    -0.115982607575E+03   -0.28454E-05   -0.26646E-07 10184   0.214E-03
   1 F= -.11598083E+03 E0= -.11596779E+03  d E =-.390990E-01
