       N       E                     dE             d eps       ncg     rms          rms(c)
DAV:   1     0.103094460698E+04    0.10309E+04   -0.58324E+04 19296   0.103E+03
DAV:   2    -0.276335972069E+02   -0.10586E+04   -0.98341E+03 23936   0.260E+02
DAV:   3    -0.119327594483E+03   -0.91694E+02   -0.84726E+02 22864   0.759E+01
DAV:   4    -0.123911219095E+03   -0.45836E+01   -0.43607E+01 25800   0.172E+01
DAV:   5    -0.124055083147E+03   -0.14386E+00   -0.14245E+00 26064   0.299E+00    0.433E+01
DAV:   6    -0.117611285387E+03    0.64438E+01   -0.32876E+01 22576   0.237E+01    0.321E+01
DAV:   7    -0.140374921879E+03   -0.22764E+02   -0.97523E+01 23256   0.572E+01    0.444E+01
DAV:   8    -0.124424480606E+03    0.15950E+02   -0.65344E+01 24292   0.424E+01    0.283E+01
DAV:   9    -0.128389428768E+03   -0.39649E+01   -0.58583E+01 29536   0.469E+01    0.289E+01
DAV:  10    -0.120361900007E+03    0.80275E+01   -0.49331E+01 27212   0.358E+01    0.223E+01
DAV:  11    -0.115992892912E+03    0.43690E+01   -0.19036E+01 28360   0.184E+01    0.112E+01
DAV:  12    -0.115676185384E+03    0.31671E+00   -0.76170E+00 27808   0.124E+01    0.884E+00
DAV:  13    -0.115111525756E+03    0.56466E+00   -0.14709E+00 27472   0.598E+00    0.492E+00
DAV:  14    -0.114950467544E+03    0.16106E+00   -0.96212E-01 22944   0.456E+00    0.333E+00
DAV:  15    -0.114941209854E+03    0.92577E-02   -0.13634E-01 23888   0.158E+00    0.269E+00
DAV:  16    -0.114923278236E+03    0.17932E-01   -0.24584E-02 24920   0.693E-01    0.199E+00
DAV:  17    -0.114893559366E+03    0.29719E-01   -0.12877E-01 21560   0.151E+00    0.879E-01
DAV:  18    -0.114888746207E+03    0.48132E-02   -0.26946E-02 22608   0.772E-01    0.533E-01
DAV:  19    -0.114886176705E+03    0.25695E-02   -0.13966E-02 24984   0.511E-01    0.274E-01
DAV:  20    -0.114885746361E+03    0.43034E-03   -0.16286E-03 21036   0.180E-01    0.253E-01
DAV:  21    -0.114885071245E+03    0.67512E-03   -0.12152E-03 23180   0.143E-01    0.153E-01
DAV:  22    -0.114884851031E+03    0.22021E-03   -0.93168E-04 22696   0.125E-01    0.110E-01
DAV:  23    -0.114884764474E+03    0.86557E-04   -0.29955E-04 22040   0.788E-02    0.649E-02
DAV:  24    -0.114884834728E+03   -0.70254E-04   -0.18479E-04 22200   0.593E-02    0.458E-02
DAV:  25    -0.114885059715E+03   -0.22499E-03   -0.16304E-04 22572   0.525E-02    0.475E-02
DAV:  26    -0.114885193826E+03   -0.13411E-03   -0.56213E-05 15048   0.297E-02    0.421E-02
DAV:  27    -0.114885319339E+03   -0.12551E-03   -0.27604E-05 13772   0.234E-02    0.337E-02
DAV:  28    -0.114885509012E+03   -0.18967E-03   -0.33525E-05 15684   0.199E-02    0.298E-02
DAV:  29    -0.114885638494E+03   -0.12948E-03   -0.22052E-05 12696   0.222E-02    0.161E-02
DAV:  30    -0.114885741371E+03   -0.10288E-03   -0.13147E-05 12844   0.129E-02    0.139E-02
DAV:  31    -0.114885845479E+03   -0.10411E-03   -0.55697E-06 12656   0.821E-03    0.104E-02
DAV:  32    -0.114885908473E+03   -0.62994E-04   -0.32154E-06 12480   0.678E-03    0.798E-03
DAV:  33    -0.114885962747E+03   -0.54274E-04   -0.29361E-06 12600   0.590E-03    0.923E-03
DAV:  34    -0.114885995409E+03   -0.32662E-04   -0.19103E-06 12336   0.489E-03    0.609E-03
DAV:  35    -0.114886008074E+03   -0.12666E-04   -0.12435E-06 11860   0.381E-03    0.351E-03
DAV:  36    -0.114886017751E+03   -0.96762E-05   -0.54175E-07 11720   0.292E-03
   1 F= -.11486803E+03 E0= -.11486264E+03  d E =-.161749E-01
