 vasp.5.4.4.18Apr17-6-g9f103f2a35 (build Apr 28 2017 10:53:45) complex          
  
 executed on             LinuxIFC date 2019.07.18  17:44:17
 running on   16 total cores
 distrk:  each k-point on   16 cores,    1 groups
 distr:  one band on NCORES_PER_BAND=   4 cores,    4 groups


--------------------------------------------------------------------------------------------------------


 INCAR:
 POTCAR:    PAW_PBE Au 04Oct2007                  
 POTCAR:    PAW_PBE C 08Apr2002                   
 POTCAR:    PAW_PBE H 15Jun2001                   
 POTCAR:    PAW_PBE Ir 06Sep2000                  
 POTCAR:    PAW_PBE Pt 04Feb2005                  
 POTCAR:    PAW_PBE Au 04Oct2007                  
   VRHFIN =Au: s1d10                                                            
   LEXCH  = PE                                                                  
   EATOM  =   926.0867 eV,   68.0654 Ry                                         
                                                                                
   TITEL  = PAW_PBE Au 04Oct2007                                                
   LULTRA =        F    use ultrasoft PP ?                                      
   IUNSCR =        1    unscreen: 0-lin 1-nonlin 2-no                           
   RPACOR =    2.330    partial core radius                                     
   POMASS =  196.966; ZVAL   =   11.000    mass and valenz                      
   RCORE  =    2.500    outmost cutoff radius                                   
   RWIGS  =    2.840; RWIGS  =    1.503    wigner-seitz radius (au A)           
   ENMAX  =  229.943; ENMIN  =  172.457 eV                                      
   ICORE  =        3    local potential                                         
   LCOR   =        T    correct aug charges                                     
   LPAW   =        T    paw PP                                                  
   EAUG   =  356.670                                                            
   DEXC   =    0.000                                                            
   RMAX   =    2.562    core radius for proj-oper                               
   RAUG   =    1.300    factor for augmentation sphere                          
   RDEP   =    2.598    radius for radial grids                                 
   RDEPT  =    2.193    core radius for aug-charge                              
                                                                                
   Atomic configuration                                                         
   16 entries                                                                   
     n  l   j            E        occ.                                          
     1  0  0.50    -80748.5001   2.0000                                         
     2  0  0.50    -14244.7466   2.0000                                         
     2  1  1.50    -12310.9591   6.0000                                         
     3  0  0.50     -3362.1768   2.0000                                         
     3  1  1.50     -2801.5463   6.0000                                         
     3  2  2.50     -2203.8206  10.0000                                         
     4  0  0.50      -729.8168   2.0000                                         
     4  1  1.50      -546.0527   6.0000                                         
     4  2  2.50      -325.7302  10.0000                                         
     4  3  3.50       -81.1472  14.0000                                         
     5  0  0.50      -108.3201   2.0000                                         
     5  1  1.50       -59.7479   6.0000                                         
     5  2  2.50        -6.8783  10.0000                                         
     6  0  0.50        -5.7602   1.0000                                         
     6  1  1.50        -6.8029   0.0000                                         
     5  3  2.50        -1.3606   0.0000                                         
   Description                                                                  
     l       E           TYP  RCUT    TYP  RCUT                                 
     2     -6.8782861     23  2.500                                             
     2     -8.2388687     23  2.500                                             
     0     -5.7601759     23  2.500                                             
     0     -0.8493231     23  2.500                                             
     1     -2.7211652     23  2.500                                             
     1     27.2116520     23  2.500                                             
     3     -1.3605826     23  2.500                                             
  local pseudopotential read in
  partial core-charges read in
  partial kinetic energy density read in
  atomic valenz-charges read in
  non local Contribution for L=           2  read in
    real space projection operators read in
  non local Contribution for L=           2  read in
    real space projection operators read in
  non local Contribution for L=           0  read in
    real space projection operators read in
  non local Contribution for L=           0  read in
    real space projection operators read in
  non local Contribution for L=           1  read in
    real space projection operators read in
  non local Contribution for L=           1  read in
    real space projection operators read in
    PAW grid and wavefunctions read in
 
   number of l-projection  operators is LMAX  =           6
   number of lm-projection operators is LMMAX =          18
 
 POTCAR:    PAW_PBE C 08Apr2002                   
   VRHFIN =C: s2p2                                                              
   LEXCH  = PE                                                                  
   EATOM  =   147.1560 eV,   10.8157 Ry                                         
                                                                                
   TITEL  = PAW_PBE C 08Apr2002                                                 
   LULTRA =        F    use ultrasoft PP ?                                      
   IUNSCR =        1    unscreen: 0-lin 1-nonlin 2-no                           
   RPACOR =    1.200    partial core radius                                     
   POMASS =   12.011; ZVAL   =    4.000    mass and valenz                      
   RCORE  =    1.500    outmost cutoff radius                                   
   RWIGS  =    1.630; RWIGS  =    0.863    wigner-seitz radius (au A)           
   ENMAX  =  400.000; ENMIN  =  300.000 eV                                      
   ICORE  =        2    local potential                                         
   LCOR   =        T    correct aug charges                                     
   LPAW   =        T    paw PP                                                  
   EAUG   =  644.873                                                            
   DEXC   =    0.000                                                            
   RMAX   =    1.529    core radius for proj-oper                               
   RAUG   =    1.300    factor for augmentation sphere                          
   RDEP   =    1.501    radius for radial grids                                 
   RDEPT  =    1.300    core radius for aug-charge                              
                                                                                
   Atomic configuration                                                         
    4 entries                                                                   
     n  l   j            E        occ.                                          
     1  0  0.50      -273.3789   2.0000                                         
     2  0  0.50       -13.7508   2.0000                                         
     2  1  0.50        -5.2854   2.0000                                         
     3  2  1.50        -5.4423   0.0000                                         
   Description                                                                  
     l       E           TYP  RCUT    TYP  RCUT                                 
     0    -13.7508458     23  1.200                                             
     0     -8.2022199     23  1.200                                             
     1     -5.2854383     23  1.500                                             
     1     34.0145650     23  1.500                                             
     2     -5.4423304      7  1.500                                             
  local pseudopotential read in
  partial core-charges read in
  partial kinetic energy density read in
  atomic valenz-charges read in
  non local Contribution for L=           0  read in
    real space projection operators read in
  non local Contribution for L=           0  read in
    real space projection operators read in
  non local Contribution for L=           1  read in
    real space projection operators read in
  non local Contribution for L=           1  read in
    real space projection operators read in
    PAW grid and wavefunctions read in
 
   number of l-projection  operators is LMAX  =           4
   number of lm-projection operators is LMMAX =           8
 
 POTCAR:    PAW_PBE H 15Jun2001                   
   VRHFIN =H: ultrasoft test                                                    
   LEXCH  = PE                                                                  
   EATOM  =    12.4884 eV,    0.9179 Ry                                         
                                                                                
   TITEL  = PAW_PBE H 15Jun2001                                                 
   LULTRA =        F    use ultrasoft PP ?                                      
   IUNSCR =        0    unscreen: 0-lin 1-nonlin 2-no                           
   RPACOR =    0.000    partial core radius                                     
   POMASS =    1.000; ZVAL   =    1.000    mass and valenz                      
   RCORE  =    1.100    outmost cutoff radius                                   
   RWIGS  =    0.700; RWIGS  =    0.370    wigner-seitz radius (au A)           
   ENMAX  =  250.000; ENMIN  =  200.000 eV                                      
   RCLOC  =    0.701    cutoff for local pot                                    
   LCOR   =        T    correct aug charges                                     
   LPAW   =        T    paw PP                                                  
   EAUG   =  400.000                                                            
   RMAX   =    1.123    core radius for proj-oper                               
   RAUG   =    1.200    factor for augmentation sphere                          
   RDEP   =    1.112    radius for radial grids                                 
   RDEPT  =    0.926    core radius for aug-charge                              
                                                                                
   Atomic configuration                                                         
    2 entries                                                                   
     n  l   j            E        occ.                                          
     1  0  0.50        -6.4927   1.0000                                         
     2  1  0.50        -3.4015   0.0000                                         
   Description                                                                  
     l       E           TYP  RCUT    TYP  RCUT                                 
     0     -6.4927494     23  1.100                                             
     0      6.8029130     23  1.100                                             
     1     -4.0817478     23  1.100                                             
  local pseudopotential read in
  atomic valenz-charges read in
  non local Contribution for L=           0  read in
    real space projection operators read in
  non local Contribution for L=           0  read in
    real space projection operators read in
  non local Contribution for L=           1  read in
    real space projection operators read in
    PAW grid and wavefunctions read in
 
   number of l-projection  operators is LMAX  =           3
   number of lm-projection operators is LMMAX =           5
 
 POTCAR:    PAW_PBE Ir 06Sep2000                  
   VRHFIN =Ir: s1d8                                                             
   LEXCH  = PE                                                                  
   EATOM  =   560.1833 eV,   41.1723 Ry                                         
                                                                                
   TITEL  = PAW_PBE Ir 06Sep2000                                                
   LULTRA =        F    use ultrasoft PP ?                                      
   IUNSCR =        1    unscreen: 0-lin 1-nonlin 2-no                           
   RPACOR =    2.250    partial core radius                                     
   POMASS =  192.220; ZVAL   =    9.000    mass and valenz                      
   RCORE  =    2.600    outmost cutoff radius                                   
   RWIGS  =    2.690; RWIGS  =    1.423    wigner-seitz radius (au A)           
   ENMAX  =  210.864; ENMIN  =  158.148 eV                                      
   RCLOC  =    1.857    cutoff for local pot                                    
   LCOR   =        T    correct aug charges                                     
   LPAW   =        T    paw PP                                                  
   EAUG   =  318.962                                                            
   DEXC   =    0.000                                                            
   RMAX   =    2.667    core radius for proj-oper                               
   RAUG   =    1.300    factor for augmentation sphere                          
   RDEP   =    2.748    radius for radial grids                                 
   RDEPT  =    2.300    core radius for aug-charge                              
                                                                                
   Atomic configuration                                                         
   16 entries                                                                   
     n  l   j            E        occ.                                          
     1  0  0.50    -76100.0449   2.0000                                         
     2  0  0.50    -13308.1683   2.0000                                         
     2  1  1.50    -11558.0021   6.0000                                         
     3  0  0.50     -3110.7274   2.0000                                         
     3  1  1.50     -2599.2109   6.0000                                         
     3  2  2.50     -2037.1515  10.0000                                         
     4  0  0.50      -661.6001   2.0000                                         
     4  1  1.50      -493.8981   6.0000                                         
     4  2  2.50      -288.1909  10.0000                                         
     4  3  3.50       -59.5718  14.0000                                         
     5  0  0.50       -95.3879   2.0000                                         
     5  1  1.50       -52.2747   6.0000                                         
     5  2  2.50        -5.4180   8.0000                                         
     6  0  0.50        -5.5479   1.0000                                         
     6  1  1.50        -6.8029   0.0000                                         
     5  3  2.50        -1.3606   0.0000                                         
   Description                                                                  
     l       E           TYP  RCUT    TYP  RCUT                                 
     2     -5.4179967     23  2.600                                             
     2     -6.7785793     23  2.600                                             
     0     -5.5478636     23  2.600                                             
     0      2.2542272     23  2.600                                             
     1     -2.7211652     23  2.600                                             
     1     20.4087390     23  2.600                                             
  local pseudopotential read in
  partial core-charges read in
  partial kinetic energy density read in
  atomic valenz-charges read in
  non local Contribution for L=           2  read in
    real space projection operators read in
  non local Contribution for L=           2  read in
    real space projection operators read in
  non local Contribution for L=           0  read in
    real space projection operators read in
  non local Contribution for L=           0  read in
    real space projection operators read in
  non local Contribution for L=           1  read in
    real space projection operators read in
  non local Contribution for L=           1  read in
    real space projection operators read in
    PAW grid and wavefunctions read in
 
   number of l-projection  operators is LMAX  =           6
   number of lm-projection operators is LMMAX =          18
 
 POTCAR:    PAW_PBE Pt 04Feb2005                  
   VRHFIN =Pt: s1d9                                                             
   LEXCH  = PE                                                                  
   EATOM  =   729.1176 eV,   53.5886 Ry                                         
                                                                                
   TITEL  = PAW_PBE Pt 04Feb2005                                                
   LULTRA =        F    use ultrasoft PP ?                                      
   IUNSCR =        1    unscreen: 0-lin 1-nonlin 2-no                           
   RPACOR =    2.330    partial core radius                                     
   POMASS =  195.080; ZVAL   =   10.000    mass and valenz                      
   RCORE  =    2.600    outmost cutoff radius                                   
   RWIGS  =    2.750; RWIGS  =    1.455    wigner-seitz radius (au A)           
   ENMAX  =  230.283; ENMIN  =  172.712 eV                                      
   ICORE  =        3    local potential                                         
   LCOR   =        T    correct aug charges                                     
   LPAW   =        T    paw PP                                                  
   EAUG   =  358.966                                                            
   DEXC   =    0.000                                                            
   RMAX   =    2.658    core radius for proj-oper                               
   RAUG   =    1.300    factor for augmentation sphere                          
   RDEP   =    2.761    radius for radial grids                                 
   RDEPT  =    2.203    core radius for aug-charge                              
                                                                                
   Atomic configuration                                                         
   16 entries                                                                   
     n  l   j            E        occ.                                          
     1  0  0.50    -78401.1885   2.0000                                         
     2  0  0.50    -13770.7750   2.0000                                         
     2  1  1.50    -11931.0468   6.0000                                         
     3  0  0.50     -3234.7234   2.0000                                         
     3  1  1.50     -2699.2216   6.0000                                         
     3  2  2.50     -2119.5714  10.0000                                         
     4  0  0.50      -695.1528   2.0000                                         
     4  1  1.50      -519.6034   6.0000                                         
     4  2  2.50      -306.6786  10.0000                                         
     4  3  3.50       -70.1041  14.0000                                         
     5  0  0.50      -101.7747   2.0000                                         
     5  1  1.50       -55.9873   6.0000                                         
     5  2  2.50        -6.1423   9.0000                                         
     6  0  0.50        -5.6573   1.0000                                         
     6  1  1.50        -6.8029   0.0000                                         
     5  3  2.50        -1.3606   0.0000                                         
   Description                                                                  
     l       E           TYP  RCUT    TYP  RCUT                                 
     2     -6.1423404     23  2.500                                             
     2     -7.5029230     23  2.500                                             
     0     -5.6573207     23  2.500                                             
     0      0.7416693     23  2.500                                             
     1     -2.7211652     23  2.600                                             
     1     20.4087390     23  2.600                                             
     3     -1.3605826     23  2.500                                             
  local pseudopotential read in
  partial core-charges read in
  partial kinetic energy density read in
  atomic valenz-charges read in
  non local Contribution for L=           2  read in
    real space projection operators read in
  non local Contribution for L=           2  read in
    real space projection operators read in
  non local Contribution for L=           0  read in
    real space projection operators read in
  non local Contribution for L=           0  read in
    real space projection operators read in
  non local Contribution for L=           1  read in
    real space projection operators read in
  non local Contribution for L=           1  read in
    real space projection operators read in
    PAW grid and wavefunctions read in
 
   number of l-projection  operators is LMAX  =           6
   number of lm-projection operators is LMMAX =          18
 
 Optimization of the real space projectors (new method)

 maximal supplied QI-value         = 15.12
 optimisation between [QCUT,QGAM] = [  9.52, 19.05] = [ 25.40,101.61] Ry 
 Optimized for a Real-space Cutoff    1.57 Angstroem

   l    n(q)    QCUT    max X(q) W(low)/X(q) W(high)/X(q)  e(spline) 
   2      8     9.524    60.898    0.38E-03    0.43E-04    0.84E-07
   2      8     9.524    58.894    0.38E-03    0.47E-04    0.88E-07
   0      9     9.524   109.617    0.60E-04    0.64E-04    0.80E-07
   0      9     9.524    75.026    0.59E-04    0.62E-04    0.78E-07
   1      8     9.524    16.344    0.99E-04    0.18E-03    0.87E-07
   1      8     9.524    10.160    0.78E-04    0.15E-03    0.74E-07
 Optimization of the real space projectors (new method)

 maximal supplied QI-value         = 25.13
 optimisation between [QCUT,QGAM] = [  9.55, 19.10] = [ 25.54,102.17] Ry 
 Optimized for a Real-space Cutoff    1.39 Angstroem

   l    n(q)    QCUT    max X(q) W(low)/X(q) W(high)/X(q)  e(spline) 
   0      8     9.551   115.676    0.39E-03    0.54E-03    0.29E-06
   0      8     9.551    87.132    0.39E-03    0.54E-03    0.28E-06
   1      7     9.551     4.429    0.35E-03    0.51E-04    0.29E-06
   1      7     9.551     2.733    0.22E-03    0.42E-04    0.31E-06
 Optimization of the real space projectors (new method)

 maximal supplied QI-value         = 34.20
 optimisation between [QCUT,QGAM] = [  9.58, 19.15] = [ 25.68,102.74] Ry 
 Optimized for a Real-space Cutoff    1.31 Angstroem

   l    n(q)    QCUT    max X(q) W(low)/X(q) W(high)/X(q)  e(spline) 
   0      7     9.577    19.460    0.33E-03    0.12E-03    0.35E-06
   0      7     9.577    12.209    0.33E-03    0.11E-03    0.33E-06
   1      7     9.577     4.655    0.39E-03    0.14E-02    0.33E-06
 Optimization of the real space projectors (new method)

 maximal supplied QI-value         = 14.36
 optimisation between [QCUT,QGAM] = [  9.48, 19.10] = [ 25.16,102.17] Ry 
 Optimized for a Real-space Cutoff    1.57 Angstroem

   l    n(q)    QCUT    max X(q) W(low)/X(q) W(high)/X(q)  e(spline) 
   2      8     9.479   134.116    0.18E-03    0.75E-03    0.26E-06
   2      8     9.479   130.192    0.18E-03    0.75E-03    0.27E-06
   0      9     9.479    60.310    0.39E-03    0.24E-03    0.63E-07
   0      9     9.479    39.218    0.36E-03    0.22E-03    0.59E-07
   1      8     9.479    18.439    0.20E-03    0.15E-03    0.16E-06
   1      8     9.479    12.760    0.16E-03    0.11E-03    0.13E-06
 Optimization of the real space projectors (new method)

 maximal supplied QI-value         = 14.36
 optimisation between [QCUT,QGAM] = [  9.48, 19.10] = [ 25.16,102.17] Ry 
 Optimized for a Real-space Cutoff    1.57 Angstroem

   l    n(q)    QCUT    max X(q) W(low)/X(q) W(high)/X(q)  e(spline) 
   2      8     9.479    66.195    0.35E-03    0.53E-04    0.87E-07
   2      8     9.479    64.643    0.35E-03    0.57E-04    0.91E-07
   0      9     9.479    95.520    0.50E-04    0.62E-04    0.81E-07
   0      9     9.479    63.403    0.49E-04    0.60E-04    0.78E-07
   1      8     9.479    19.961    0.10E-03    0.87E-04    0.11E-06
   1      8     9.479    13.289    0.88E-04    0.71E-04    0.97E-07
  PAW_PBE Au 04Oct2007                  :
 energy of atom  1       EATOM= -926.0867
 kinetic energy error for atom=    0.0152 (will be added to EATOM!!)
  PAW_PBE C 08Apr2002                   :
 energy of atom  2       EATOM= -147.1560
 kinetic energy error for atom=    0.0854 (will be added to EATOM!!)
  PAW_PBE H 15Jun2001                   :
 energy of atom  3       EATOM=  -12.4884
 kinetic energy error for atom=    0.0203 (will be added to EATOM!!)
  PAW_PBE Ir 06Sep2000                  :
 energy of atom  4       EATOM= -560.1833
 kinetic energy error for atom=    0.0056 (will be added to EATOM!!)
  PAW_PBE Pt 04Feb2005                  :
 energy of atom  5       EATOM= -729.1176
 kinetic energy error for atom=    0.0144 (will be added to EATOM!!)
 
 
 POSCAR: Au  C  H Ir Pt                          
  positions in cartesian coordinates
  No initial velocities read in
 exchange correlation table for  LEXCH =        8
   RHO(1)=    0.500       N(1)  =     2000
   RHO(2)=  100.500       N(2)  =     4000
 


--------------------------------------------------------------------------------------------------------


 ion  position               nearest neighbor table
   1  0.339  0.332  0.544-   8 2.77  20 2.77  13 2.77  21 2.77  17 2.78  21 2.79  13 2.79  20 2.79
                            16 2.80  15 2.80  10 2.82   9 2.86
   2  0.005  0.018  0.698-   6 1.10   5 1.10   4 1.10   3 1.45  11 2.25
   3  0.011  0.199  0.665-   2 1.45  11 1.70   9 2.10
   4  0.886  0.215  0.716-   2 1.10
   5  0.897  0.899  0.702-   2 1.10
   6  0.220  0.903  0.710-   2 1.10
   7  0.502  0.004  0.394-  12 2.78  19 2.78  18 2.78  18 2.78  19 2.78  12 2.78  17 2.82  14 2.82
                            16 2.83
   8  0.502  0.495  0.618-   1 2.77   9 2.77  10 2.77  11 2.78  10 2.79   9 2.79  11 2.80  13 2.80
                            20 2.80
   9  0.005  0.491  0.621-   3 2.10  11 2.76   8 2.77  10 2.78  10 2.78   8 2.79  11 2.80  13 2.82
                            21 2.84   1 2.86
  10  0.506  0.991  0.619-  11 2.75  21 2.77  20 2.77   8 2.77   9 2.78   9 2.78   8 2.79  11 2.82
                             1 2.82
  11  0.001  0.990  0.626-   3 1.70   2 2.25  10 2.75   9 2.76   8 2.78   8 2.80   9 2.80  10 2.82
                            21 2.86  20 2.98  13 3.00
  12  0.003  0.004  0.394-  18 2.77   7 2.78  19 2.78  19 2.78   7 2.78  18 2.78  16 2.82  17 2.83
                            15 2.83
  13  0.841  0.334  0.544-  21 2.76  20 2.77   1 2.77   1 2.79  20 2.79  17 2.79  16 2.80   8 2.80
                            21 2.80  14 2.81   9 2.82  11 3.00
  14  0.672  0.671  0.470-  15 2.78  16 2.78  17 2.78  17 2.78  16 2.78  15 2.78  20 2.81  13 2.81
                            19 2.82   7 2.82  18 2.85  21 2.86
  15  0.171  0.671  0.470-  14 2.78  16 2.78  17 2.78  17 2.78  16 2.78  14 2.78  20 2.79   1 2.80
                            21 2.82  12 2.83  18 2.84  19 2.84
  16  0.672  0.171  0.470-  15 2.78  17 2.78  14 2.78  14 2.78  17 2.78  15 2.78   1 2.80  13 2.80
                            12 2.82   7 2.83  18 2.84  21 2.86
  17  0.172  0.171  0.470-  16 2.78  15 2.78  14 2.78  14 2.78  15 2.78  16 2.78   1 2.78  13 2.79
                            20 2.81   7 2.82  19 2.83  12 2.83
  18  0.501  0.504  0.394-  19 2.77  12 2.77   7 2.78   7 2.78  12 2.78  19 2.79  16 2.84  15 2.84
                            14 2.85
  19  0.003  0.504  0.394-  18 2.77   7 2.78  12 2.78  12 2.78   7 2.78  18 2.79  14 2.82  17 2.83
                            15 2.84
  20  0.338  0.835  0.545-  21 2.74  10 2.77   1 2.77  13 2.77  13 2.79  15 2.79   1 2.79   8 2.80
                            14 2.81  17 2.81  21 2.82  11 2.98
  21  0.845  0.835  0.546-  20 2.74  13 2.76  10 2.77   1 2.77   1 2.79  13 2.80  20 2.82  15 2.82
                             9 2.84  16 2.86  14 2.86  11 2.86
 
  LATTYP: Found a hexagonal cell.
 ALAT       =     5.5578593001
 C/A-ratio  =     5.5429542221
  
  Lattice vectors:
  
 A1 = (   2.7789296501,  -4.8132473446,   0.0000000000)
 A2 = (  -5.5578593001,   0.0000000000,   0.0000000000)
 A3 = (   0.0000000000,   0.0000000000, -30.8069596737)


Analysis of symmetry for initial positions (statically):
=====================================================================
 Subroutine PRICEL returns:
 Original cell was already a primitive cell.
 

 Routine SETGRP: Setting up the symmetry group for a 
 hexagonal supercell.


 Subroutine GETGRP returns: Found  1 space group operations
 (whereof  1 operations were pure point group operations)
 out of a pool of 24 trial point group operations.


The static configuration has the point symmetry C_1 .


Analysis of symmetry for dynamics (positions and initial velocities):
=====================================================================
 Subroutine PRICEL returns:
 Original cell was already a primitive cell.
 

 Routine SETGRP: Setting up the symmetry group for a 
 hexagonal supercell.


 Subroutine GETGRP returns: Found  1 space group operations
 (whereof  1 operations were pure point group operations)
 out of a pool of 24 trial point group operations.


The dynamic configuration has the point symmetry C_1 .


 Subroutine INISYM returns: Found  1 space group operations
 (whereof  1 operations are pure point group operations),
 and found     1 'primitive' translations

 
 
 KPOINTS: 0.6.Ir1.Au9                             

Automatic generation of k-mesh.
Space group operators:
 irot       det(A)        alpha          n_x          n_y          n_z        tau_x        tau_y        tau_z
    1     1.000000     0.000001     1.000000     0.000000     0.000000     0.000000     0.000000     0.000000
 
 Subroutine IBZKPT returns following result:
 ===========================================
 
 Found     96 irreducible k-points:
 
 Following reciprocal coordinates:
            Coordinates               Weight
  0.062500  0.062500  0.000000     16.000000
  0.000000  0.062500  0.000000     16.000000
 -0.062500  0.000000  0.000000     16.000000
  0.187500  0.062500  0.000000     16.000000
  0.125000  0.187500  0.000000     16.000000
 -0.062500  0.125000  0.000000     16.000000
  0.125000 -0.062500  0.000000     16.000000
 -0.062500 -0.187500  0.000000     16.000000
 -0.187500 -0.125000  0.000000     16.000000
  0.312500  0.062500  0.000000     16.000000
  0.250000  0.312500  0.000000     16.000000
 -0.062500  0.250000  0.000000     16.000000
  0.250000 -0.062500  0.000000     16.000000
 -0.062500 -0.312500  0.000000     16.000000
 -0.312500 -0.250000  0.000000     16.000000
  0.437500  0.062500  0.000000     16.000000
  0.375000  0.437500  0.000000     16.000000
 -0.062500  0.375000  0.000000     16.000000
  0.375000 -0.062500  0.000000     16.000000
 -0.062500 -0.437500  0.000000     16.000000
 -0.437500 -0.375000  0.000000     16.000000
 -0.437500  0.062500  0.000000     16.000000
  0.500000 -0.437500  0.000000     16.000000
 -0.062500  0.500000  0.000000     16.000000
  0.500000 -0.062500  0.000000     16.000000
 -0.062500  0.437500  0.000000     16.000000
  0.437500  0.500000  0.000000     16.000000
 -0.312500  0.062500  0.000000     16.000000
 -0.375000 -0.312500  0.000000     16.000000
 -0.062500 -0.375000  0.000000     16.000000
 -0.375000 -0.062500  0.000000     16.000000
 -0.062500  0.312500  0.000000     16.000000
  0.312500  0.375000  0.000000     16.000000
 -0.187500  0.062500  0.000000     16.000000
 -0.250000 -0.187500  0.000000     16.000000
 -0.062500 -0.250000  0.000000     16.000000
 -0.250000 -0.062500  0.000000     16.000000
 -0.062500  0.187500  0.000000     16.000000
  0.187500  0.250000  0.000000     16.000000
 -0.062500  0.062500  0.000000     16.000000
 -0.125000 -0.062500  0.000000     16.000000
 -0.062500 -0.125000  0.000000     16.000000
  0.187500  0.187500  0.000000     16.000000
  0.000000  0.187500  0.000000     16.000000
 -0.187500  0.000000  0.000000     16.000000
  0.312500  0.187500  0.000000     16.000000
  0.125000  0.312500  0.000000     16.000000
 -0.187500  0.125000  0.000000     16.000000
  0.125000 -0.187500  0.000000     16.000000
 -0.187500 -0.312500  0.000000     16.000000
 -0.312500 -0.125000  0.000000     16.000000
  0.437500  0.187500  0.000000     16.000000
  0.250000  0.437500  0.000000     16.000000
 -0.187500  0.250000  0.000000     16.000000
  0.250000 -0.187500  0.000000     16.000000
 -0.187500 -0.437500  0.000000     16.000000
 -0.437500 -0.250000  0.000000     16.000000
 -0.437500  0.187500  0.000000     16.000000
  0.375000 -0.437500  0.000000     16.000000
 -0.187500  0.375000  0.000000     16.000000
  0.375000 -0.187500  0.000000     16.000000
 -0.187500  0.437500  0.000000     16.000000
  0.437500 -0.375000  0.000000     16.000000
 -0.312500  0.187500  0.000000     16.000000
  0.500000 -0.312500  0.000000     16.000000
 -0.187500  0.500000  0.000000     16.000000
  0.500000 -0.187500  0.000000     16.000000
 -0.187500  0.312500  0.000000     16.000000
  0.312500  0.500000  0.000000     16.000000
 -0.187500  0.187500  0.000000     16.000000
 -0.375000 -0.187500  0.000000     16.000000
 -0.187500 -0.375000  0.000000     16.000000
  0.312500  0.312500  0.000000     16.000000
  0.000000  0.312500  0.000000     16.000000
 -0.312500  0.000000  0.000000     16.000000
  0.437500  0.312500  0.000000     16.000000
  0.125000  0.437500  0.000000     16.000000
 -0.312500  0.125000  0.000000     16.000000
  0.125000 -0.312500  0.000000     16.000000
 -0.312500 -0.437500  0.000000     16.000000
 -0.437500 -0.125000  0.000000     16.000000
 -0.437500  0.312500  0.000000     16.000000
  0.250000 -0.437500  0.000000     16.000000
 -0.312500  0.250000  0.000000     16.000000
  0.250000 -0.312500  0.000000     16.000000
 -0.312500  0.437500  0.000000     16.000000
  0.437500 -0.250000  0.000000     16.000000
 -0.312500  0.312500  0.000000     16.000000
  0.375000 -0.312500  0.000000     16.000000
 -0.312500  0.375000  0.000000     16.000000
  0.437500  0.437500  0.000000     16.000000
  0.000000  0.437500  0.000000     16.000000
 -0.437500 -0.000000  0.000000     16.000000
 -0.437500  0.437500  0.000000     16.000000
  0.125000 -0.437500  0.000000     16.000000
 -0.437500  0.125000  0.000000     16.000000
 
 Following cartesian coordinates:
            Coordinates               Weight
  0.011245  0.006492  0.000000     16.000000
  0.000000  0.012985  0.000000     16.000000
 -0.011245  0.006492  0.000000     16.000000
  0.033736 -0.006492  0.000000     16.000000
  0.022491  0.025970  0.000000     16.000000
 -0.011245  0.032462  0.000000     16.000000
  0.022491 -0.025970  0.000000     16.000000
 -0.011245 -0.032462  0.000000     16.000000
 -0.033736 -0.006492  0.000000     16.000000
  0.056227 -0.019477  0.000000     16.000000
  0.044981  0.038955  0.000000     16.000000
 -0.011245  0.058432  0.000000     16.000000
  0.044981 -0.038955  0.000000     16.000000
 -0.011245 -0.058432  0.000000     16.000000
 -0.056227 -0.019477  0.000000     16.000000
  0.078717 -0.032462  0.000000     16.000000
  0.067472  0.051940  0.000000     16.000000
 -0.011245  0.084402  0.000000     16.000000
  0.067472 -0.051940  0.000000     16.000000
 -0.011245 -0.084402  0.000000     16.000000
 -0.078717 -0.032462  0.000000     16.000000
 -0.078717  0.058432  0.000000     16.000000
  0.089963 -0.142835  0.000000     16.000000
 -0.011245  0.110372  0.000000     16.000000
  0.089963 -0.064925  0.000000     16.000000
 -0.011245  0.097387  0.000000     16.000000
  0.078717  0.058432  0.000000     16.000000
 -0.056227  0.045447  0.000000     16.000000
 -0.067472 -0.025970  0.000000     16.000000
 -0.011245 -0.071417  0.000000     16.000000
 -0.067472  0.025970  0.000000     16.000000
 -0.011245  0.071417  0.000000     16.000000
  0.056227  0.045447  0.000000     16.000000
 -0.033736  0.032462  0.000000     16.000000
 -0.044981 -0.012985  0.000000     16.000000
 -0.011245 -0.045447  0.000000     16.000000
 -0.044981  0.012985  0.000000     16.000000
 -0.011245  0.045447  0.000000     16.000000
  0.033736  0.032462  0.000000     16.000000
 -0.011245  0.019477  0.000000     16.000000
 -0.022491  0.000000  0.000000     16.000000
 -0.011245 -0.019477  0.000000     16.000000
  0.033736  0.019477  0.000000     16.000000
  0.000000  0.038955  0.000000     16.000000
 -0.033736  0.019477  0.000000     16.000000
  0.056227  0.006492  0.000000     16.000000
  0.022491  0.051940  0.000000     16.000000
 -0.033736  0.045447  0.000000     16.000000
  0.022491 -0.051940  0.000000     16.000000
 -0.033736 -0.045447  0.000000     16.000000
 -0.056227  0.006492  0.000000     16.000000
  0.078717 -0.006492  0.000000     16.000000
  0.044981  0.064925  0.000000     16.000000
 -0.033736  0.071417  0.000000     16.000000
  0.044981 -0.064925  0.000000     16.000000
 -0.033736 -0.071417  0.000000     16.000000
 -0.078717 -0.006492  0.000000     16.000000
 -0.078717  0.084402  0.000000     16.000000
  0.067472 -0.129850  0.000000     16.000000
 -0.033736  0.097387  0.000000     16.000000
  0.067472 -0.077910  0.000000     16.000000
 -0.033736  0.110372  0.000000     16.000000
  0.078717 -0.123357  0.000000     16.000000
 -0.056227  0.071417  0.000000     16.000000
  0.089963 -0.116865  0.000000     16.000000
 -0.033736  0.123357  0.000000     16.000000
  0.089963 -0.090895  0.000000     16.000000
 -0.033736  0.084402  0.000000     16.000000
  0.056227  0.071417  0.000000     16.000000
 -0.033736  0.058432  0.000000     16.000000
 -0.067472  0.000000  0.000000     16.000000
 -0.033736 -0.058432  0.000000     16.000000
  0.056227  0.032462  0.000000     16.000000
  0.000000  0.064925  0.000000     16.000000
 -0.056227  0.032462  0.000000     16.000000
  0.078717  0.019477  0.000000     16.000000
  0.022491  0.077910  0.000000     16.000000
 -0.056227  0.058432  0.000000     16.000000
  0.022491 -0.077910  0.000000     16.000000
 -0.056227 -0.058432  0.000000     16.000000
 -0.078717  0.019477  0.000000     16.000000
 -0.078717  0.110372  0.000000     16.000000
  0.044981 -0.116865  0.000000     16.000000
 -0.056227  0.084402  0.000000     16.000000
  0.044981 -0.090895  0.000000     16.000000
 -0.056227  0.123357  0.000000     16.000000
  0.078717 -0.097387  0.000000     16.000000
 -0.056227  0.097387  0.000000     16.000000
  0.067472 -0.103880  0.000000     16.000000
 -0.056227  0.110372  0.000000     16.000000
  0.078717  0.045447  0.000000     16.000000
  0.000000  0.090895  0.000000     16.000000
 -0.078717  0.045447  0.000000     16.000000
 -0.078717  0.136342  0.000000     16.000000
  0.022491 -0.103880  0.000000     16.000000
 -0.078717  0.071417  0.000000     16.000000
 


--------------------------------------------------------------------------------------------------------




 Dimension of arrays:
   k-points           NKPTS =     96   k-points in BZ     NKDIM =     96   number of bands    NBANDS=    100
   number of dos      NEDOS =    301   number of ions     NIONS =     21
   non local maximal  LDIM  =      6   non local SUM 2l+1 LMDIM =     18
   total plane-waves  NPLWV = 112896
   max r-space proj   IRMAX =   2252   max aug-charges    IRDMAX=  10104
   dimension x,y,z NGX =    28 NGY =   28 NGZ =  144
   dimension x,y,z NGXF=    56 NGYF=   56 NGZF=  288
   support grid    NGXF=    56 NGYF=   56 NGZF=  288
   ions per type =               1   1   4   1  14
   NGX,Y,Z   is equivalent  to a cutoff of   8.38,  8.38,  7.77 a.u.
   NGXF,Y,Z  is equivalent  to a cutoff of  16.75, 16.75, 15.54 a.u.

 SYSTEM =  0.6.Ir1.Au9                             
 POSCAR =  Au  C  H Ir Pt                          

 Startparameter for this run:
   NWRITE =      2    write-flag & timer
   PREC   = normal    normal or accurate (medium, high low for compatibility)
   ISTART =      0    job   : 0-new  1-cont  2-samecut
   ICHARG =      2    charge: 1-file 2-atom 10-const
   ISPIN  =      1    spin polarized calculation?
   LNONCOLLINEAR =      F non collinear calculations
   LSORBIT =      F    spin-orbit coupling
   INIWAV =      1    electr: 0-lowe 1-rand  2-diag
   LASPH  =      F    aspherical Exc in radial PAW
   METAGGA=      F    non-selfconsistent MetaGGA calc.

 Electronic Relaxation 1
   ENCUT  =  350.0 eV  25.72 Ry    5.07 a.u.   8.48  8.48 46.99*2*pi/ulx,y,z
   ENINI  =  350.0     initial cutoff
   ENAUG  =  644.9 eV  augmentation charge cutoff
   NELM   =   1000;   NELMIN=  5; NELMDL= -5     # of ELM steps 
   EDIFF  = 0.1E-04   stopping-criterion for ELM
   LREAL  =      T    real-space projection
   NLSPLINE    = F    spline interpolate recip. space projectors
   LCOMPAT=      F    compatible to vasp.4.4
   GGA_COMPAT  = T    GGA compatible to vasp.4.4-vasp.4.6
   LMAXPAW     = -100 max onsite density
   LMAXMIX     =    2 max onsite mixed and CHGCAR
   VOSKOWN=      0    Vosko Wilk Nusair interpolation
   ROPT   =   -0.00050  -0.00050  -0.00050  -0.00050
   ROPT   =   -0.00050
 Ionic relaxation
   EDIFFG = 0.1E-03   stopping-criterion for IOM
   NSW    =      0    number of steps for IOM
   NBLOCK =      1;   KBLOCK =      1    inner block; outer block 
   IBRION =     -1    ionic relax: 0-MD 1-quasi-New 2-CG
   NFREE  =      0    steps in history (QN), initial steepest desc. (CG)
   ISIF   =      2    stress and relaxation
   IWAVPR =     10    prediction:  0-non 1-charg 2-wave 3-comb
   ISYM   =      2    0-nonsym 1-usesym 2-fastsym
   LCORR  =      T    Harris-Foulkes like correction to forces

   POTIM  = 0.5000    time-step for ionic-motion
   TEIN   =    0.0    initial temperature
   TEBEG  =    0.0;   TEEND  =   0.0 temperature during run
   SMASS  =  -3.00    Nose mass-parameter (am)
   estimated Nose-frequenzy (Omega)   =  0.10E-29 period in steps =****** mass=  -0.706E-27a.u.
   SCALEE = 1.0000    scale energy and forces
   NPACO  =    256;   APACO  = 16.0  distance and # of slots for P.C.
   PSTRESS=    0.0 pullay stress

  Mass of Ions in am
   POMASS = 196.97 12.01  1.00192.22195.08
  Ionic Valenz
   ZVAL   =  11.00  4.00  1.00  9.00 10.00
  Atomic Wigner-Seitz radii
   RWIGS  =  -1.00 -1.00 -1.00 -1.00 -1.00
  virtual crystal weights 
   VCA    =   1.00  1.00  1.00  1.00  1.00
   NELECT =     168.0000    total number of electrons
   NUPDOWN=      -1.0000    fix difference up-down

 DOS related values:
   EMIN   =  10.00;   EMAX   =-10.00  energy-range for DOS
   EFERMI =   0.00
   ISMEAR =     1;   SIGMA  =   0.20  broadening in eV -4-tet -1-fermi 0-gaus

 Electronic relaxation 2 (details)
   IALGO  =     38    algorithm
   LDIAG  =      T    sub-space diagonalisation (order eigenvalues)
   LSUBROT=      F    optimize rotation matrix (better conditioning)
   TURBO    =      0    0=normal 1=particle mesh
   IRESTART =      0    0=no restart 2=restart with 2 vectors
   NREBOOT  =      0    no. of reboots
   NMIN     =      0    reboot dimension
   EREF     =   0.00    reference energy to select bands
   IMIX   =      4    mixing-type and parameters
     AMIX     =   0.40;   BMIX     =  1.00
     AMIX_MAG =   1.60;   BMIX_MAG =  1.00
     AMIN     =   0.10
     WC   =   100.;   INIMIX=   1;  MIXPRE=   1;  MAXMIX= -45

 Intra band minimization:
   WEIMIN = 0.0000     energy-eigenvalue tresh-hold
   EBREAK =  0.25E-07  absolut break condition
   DEPER  =   0.30     relativ break condition  

   TIME   =   0.40     timestep for ELM

  volume/ion in A,a.u.               =      39.24       264.83
  Fermi-wavevector in a.u.,A,eV,Ry     =   0.963488  1.820729 12.630418  0.928310
  Thomas-Fermi vector in A             =   2.093038
 
 Write flags
   LWAVE        =      F    write WAVECAR
   LDOWNSAMPLE  =      F    k-point downsampling of WAVECAR
   LCHARG       =      F    write CHGCAR
   LVTOT        =      F    write LOCPOT, total local potential
   LVHAR        =      F    write LOCPOT, Hartree potential only
   LELF         =      F    write electronic localiz. function (ELF)
   LORBIT       =      0    0 simple, 1 ext, 2 COOP (PROOUT), +10 PAW based schemes


 Dipole corrections
   LMONO  =      F    monopole corrections only (constant potential shift)
   LDIPOL =      F    correct potential (dipole corrections)
   IDIPOL =      3    1-x, 2-y, 3-z, 4-all directions 
   EPSILON=  1.0000000 bulk dielectric constant

 Exchange correlation treatment:
   GGA     =    --    GGA type
   LEXCH   =     8    internal setting for exchange type
   VOSKOWN=      0    Vosko Wilk Nusair interpolation
   LHFCALC =     F    Hartree Fock is set to
   LHFONE  =     F    Hartree Fock one center treatment
   AEXX    =    0.0000 exact exchange contribution

 Linear response parameters
   LEPSILON=     F    determine dielectric tensor
   LRPA    =     F    only Hartree local field effects (RPA)
   LNABLA  =     F    use nabla operator in PAW spheres
   LVEL    =     F    velocity operator in full k-point grid
   LINTERFAST=   F  fast interpolation
   KINTER  =     0    interpolate to denser k-point grid
   CSHIFT  =0.1000    complex shift for real part using Kramers Kronig
   OMEGAMAX=  -1.0    maximum frequency
   DEG_THRESHOLD= 0.2000000E-02 threshold for treating states as degnerate
   RTIME   =   -0.100 relaxation time in fs
  (WPLASMAI=    0.000 imaginary part of plasma frequency in eV, 0.658/RTIME)
   DFIELD  = 0.0000000 0.0000000 0.0000000 field for delta impulse in time
 
 Orbital magnetization related:
   ORBITALMAG=     F  switch on orbital magnetization
   LCHIMAG   =     F  perturbation theory with respect to B field
   DQ        =  0.001000  dq finite difference perturbation B field
   LLRAUG    =     F  two centre corrections for induced B field



--------------------------------------------------------------------------------------------------------


 Static calculation
 charge density and potential will be updated during run
 non-spin polarized calculation
 Variant of blocked Davidson
 Davidson routine will perform the subspace rotation
 perform sub-space diagonalisation
    after iterative eigenvector-optimisation
 modified Broyden-mixing scheme, WC =      100.0
 initial mixing is a Kerker type mixing with AMIX =  0.4000 and BMIX =      1.0000
 Hartree-type preconditioning will be used
 using additional bands           16
 real space projection scheme for non local part
 use partial core corrections
 calculate Harris-corrections to forces 
   (improved forces if not selfconsistent)
 use gradient corrections 
 use of overlap-Matrix (Vanderbilt PP)
 Methfessel and Paxton  Order N= 1 SIGMA  =   0.20


--------------------------------------------------------------------------------------------------------


  energy-cutoff  :      350.00
  volume of cell :      824.13
      direct lattice vectors                 reciprocal lattice vectors
     5.557859300  0.000000000  0.000000000     0.179925390 -0.103879972  0.000000000
     2.778929650  4.813247345  0.000000000     0.000000000  0.207759944  0.000000000
     0.000000000  0.000000000 30.806959674     0.000000000  0.000000000  0.032460198

  length of vectors
     5.557859300  5.557859300 30.806959674     0.207759944  0.207759944  0.032460198


 
 k-points in units of 2pi/SCALE and weight: 0.6.Ir1.Au9                             
   0.01124534  0.00649250  0.00000000       0.010
   0.00000000  0.01298500  0.00000000       0.010
  -0.01124534  0.00649250  0.00000000       0.010
   0.03373601 -0.00649250  0.00000000       0.010
   0.02249067  0.02596999  0.00000000       0.010
  -0.01124534  0.03246249  0.00000000       0.010
   0.02249067 -0.02596999  0.00000000       0.010
  -0.01124534 -0.03246249  0.00000000       0.010
  -0.03373601 -0.00649250  0.00000000       0.010
   0.05622668 -0.01947749  0.00000000       0.010
   0.04498135  0.03895499  0.00000000       0.010
  -0.01124534  0.05843248  0.00000000       0.010
   0.04498135 -0.03895499  0.00000000       0.010
  -0.01124534 -0.05843248  0.00000000       0.010
  -0.05622668 -0.01947749  0.00000000       0.010
   0.07871736 -0.03246249  0.00000000       0.010
   0.06747202  0.05193999  0.00000000       0.010
  -0.01124534  0.08440248  0.00000000       0.010
   0.06747202 -0.05193999  0.00000000       0.010
  -0.01124534 -0.08440248  0.00000000       0.010
  -0.07871736 -0.03246249  0.00000000       0.010
  -0.07871736  0.05843248  0.00000000       0.010
   0.08996269 -0.14283496  0.00000000       0.010
  -0.01124534  0.11037247  0.00000000       0.010
   0.08996269 -0.06492498  0.00000000       0.010
  -0.01124534  0.09738747  0.00000000       0.010
   0.07871736  0.05843248  0.00000000       0.010
  -0.05622668  0.04544749  0.00000000       0.010
  -0.06747202 -0.02596999  0.00000000       0.010
  -0.01124534 -0.07141748  0.00000000       0.010
  -0.06747202  0.02596999  0.00000000       0.010
  -0.01124534  0.07141748  0.00000000       0.010
   0.05622668  0.04544749  0.00000000       0.010
  -0.03373601  0.03246249  0.00000000       0.010
  -0.04498135 -0.01298500  0.00000000       0.010
  -0.01124534 -0.04544749  0.00000000       0.010
  -0.04498135  0.01298500  0.00000000       0.010
  -0.01124534  0.04544749  0.00000000       0.010
   0.03373601  0.03246249  0.00000000       0.010
  -0.01124534  0.01947749  0.00000000       0.010
  -0.02249067  0.00000000  0.00000000       0.010
  -0.01124534 -0.01947749  0.00000000       0.010
   0.03373601  0.01947749  0.00000000       0.010
   0.00000000  0.03895499  0.00000000       0.010
  -0.03373601  0.01947749  0.00000000       0.010
   0.05622668  0.00649250  0.00000000       0.010
   0.02249067  0.05193999  0.00000000       0.010
  -0.03373601  0.04544749  0.00000000       0.010
   0.02249067 -0.05193999  0.00000000       0.010
  -0.03373601 -0.04544749  0.00000000       0.010
  -0.05622668  0.00649250  0.00000000       0.010
   0.07871736 -0.00649250  0.00000000       0.010
   0.04498135  0.06492498  0.00000000       0.010
  -0.03373601  0.07141748  0.00000000       0.010
   0.04498135 -0.06492498  0.00000000       0.010
  -0.03373601 -0.07141748  0.00000000       0.010
  -0.07871736 -0.00649250  0.00000000       0.010
  -0.07871736  0.08440248  0.00000000       0.010
   0.06747202 -0.12984997  0.00000000       0.010
  -0.03373601  0.09738747  0.00000000       0.010
   0.06747202 -0.07790998  0.00000000       0.010
  -0.03373601  0.11037247  0.00000000       0.010
   0.07871736 -0.12335747  0.00000000       0.010
  -0.05622668  0.07141748  0.00000000       0.010
   0.08996269 -0.11686497  0.00000000       0.010
  -0.03373601  0.12335747  0.00000000       0.010
   0.08996269 -0.09089498  0.00000000       0.010
  -0.03373601  0.08440248  0.00000000       0.010
   0.05622668  0.07141748  0.00000000       0.010
  -0.03373601  0.05843248  0.00000000       0.010
  -0.06747202  0.00000000  0.00000000       0.010
  -0.03373601 -0.05843248  0.00000000       0.010
   0.05622668  0.03246249  0.00000000       0.010
   0.00000000  0.06492498  0.00000000       0.010
  -0.05622668  0.03246249  0.00000000       0.010
   0.07871736  0.01947749  0.00000000       0.010
   0.02249067  0.07790998  0.00000000       0.010
  -0.05622668  0.05843248  0.00000000       0.010
   0.02249067 -0.07790998  0.00000000       0.010
  -0.05622668 -0.05843248  0.00000000       0.010
  -0.07871736  0.01947749  0.00000000       0.010
  -0.07871736  0.11037247  0.00000000       0.010
   0.04498135 -0.11686497  0.00000000       0.010
  -0.05622668  0.08440248  0.00000000       0.010
   0.04498135 -0.09089498  0.00000000       0.010
  -0.05622668  0.12335747  0.00000000       0.010
   0.07871736 -0.09738747  0.00000000       0.010
  -0.05622668  0.09738747  0.00000000       0.010
   0.06747202 -0.10387997  0.00000000       0.010
  -0.05622668  0.11037247  0.00000000       0.010
   0.07871736  0.04544749  0.00000000       0.010
   0.00000000  0.09089498  0.00000000       0.010
  -0.07871736  0.04544749  0.00000000       0.010
  -0.07871736  0.13634246  0.00000000       0.010
   0.02249067 -0.10387997  0.00000000       0.010
  -0.07871736  0.07141748  0.00000000       0.010
 
 k-points in reciprocal lattice and weights: 0.6.Ir1.Au9                             
   0.06250000  0.06250000  0.00000000       0.010
   0.00000000  0.06250000  0.00000000       0.010
  -0.06250000  0.00000000  0.00000000       0.010
   0.18750000  0.06250000  0.00000000       0.010
   0.12500000  0.18750000  0.00000000       0.010
  -0.06250000  0.12500000  0.00000000       0.010
   0.12500000 -0.06250000  0.00000000       0.010
  -0.06250000 -0.18750000  0.00000000       0.010
  -0.18750000 -0.12500000  0.00000000       0.010
   0.31250000  0.06250000  0.00000000       0.010
   0.25000000  0.31250000  0.00000000       0.010
  -0.06250000  0.25000000  0.00000000       0.010
   0.25000000 -0.06250000  0.00000000       0.010
  -0.06250000 -0.31250000  0.00000000       0.010
  -0.31250000 -0.25000000  0.00000000       0.010
   0.43750000  0.06250000  0.00000000       0.010
   0.37500000  0.43750000  0.00000000       0.010
  -0.06250000  0.37500000  0.00000000       0.010
   0.37500000 -0.06250000  0.00000000       0.010
  -0.06250000 -0.43750000  0.00000000       0.010
  -0.43750000 -0.37500000  0.00000000       0.010
  -0.43750000  0.06250000  0.00000000       0.010
   0.50000000 -0.43750000  0.00000000       0.010
  -0.06250000  0.50000000  0.00000000       0.010
   0.50000000 -0.06250000  0.00000000       0.010
  -0.06250000  0.43750000  0.00000000       0.010
   0.43750000  0.50000000  0.00000000       0.010
  -0.31250000  0.06250000  0.00000000       0.010
  -0.37500000 -0.31250000  0.00000000       0.010
  -0.06250000 -0.37500000  0.00000000       0.010
  -0.37500000 -0.06250000  0.00000000       0.010
  -0.06250000  0.31250000  0.00000000       0.010
   0.31250000  0.37500000  0.00000000       0.010
  -0.18750000  0.06250000  0.00000000       0.010
  -0.25000000 -0.18750000  0.00000000       0.010
  -0.06250000 -0.25000000  0.00000000       0.010
  -0.25000000 -0.06250000  0.00000000       0.010
  -0.06250000  0.18750000  0.00000000       0.010
   0.18750000  0.25000000  0.00000000       0.010
  -0.06250000  0.06250000  0.00000000       0.010
  -0.12500000 -0.06250000  0.00000000       0.010
  -0.06250000 -0.12500000  0.00000000       0.010
   0.18750000  0.18750000  0.00000000       0.010
   0.00000000  0.18750000  0.00000000       0.010
  -0.18750000  0.00000000  0.00000000       0.010
   0.31250000  0.18750000  0.00000000       0.010
   0.12500000  0.31250000  0.00000000       0.010
  -0.18750000  0.12500000  0.00000000       0.010
   0.12500000 -0.18750000  0.00000000       0.010
  -0.18750000 -0.31250000  0.00000000       0.010
  -0.31250000 -0.12500000  0.00000000       0.010
   0.43750000  0.18750000  0.00000000       0.010
   0.25000000  0.43750000  0.00000000       0.010
  -0.18750000  0.25000000  0.00000000       0.010
   0.25000000 -0.18750000  0.00000000       0.010
  -0.18750000 -0.43750000  0.00000000       0.010
  -0.43750000 -0.25000000  0.00000000       0.010
  -0.43750000  0.18750000  0.00000000       0.010
   0.37500000 -0.43750000  0.00000000       0.010
  -0.18750000  0.37500000  0.00000000       0.010
   0.37500000 -0.18750000  0.00000000       0.010
  -0.18750000  0.43750000  0.00000000       0.010
   0.43750000 -0.37500000  0.00000000       0.010
  -0.31250000  0.18750000  0.00000000       0.010
   0.50000000 -0.31250000  0.00000000       0.010
  -0.18750000  0.50000000  0.00000000       0.010
   0.50000000 -0.18750000  0.00000000       0.010
  -0.18750000  0.31250000  0.00000000       0.010
   0.31250000  0.50000000  0.00000000       0.010
  -0.18750000  0.18750000  0.00000000       0.010
  -0.37500000 -0.18750000  0.00000000       0.010
  -0.18750000 -0.37500000  0.00000000       0.010
   0.31250000  0.31250000  0.00000000       0.010
   0.00000000  0.31250000  0.00000000       0.010
  -0.31250000  0.00000000  0.00000000       0.010
   0.43750000  0.31250000  0.00000000       0.010
   0.12500000  0.43750000  0.00000000       0.010
  -0.31250000  0.12500000  0.00000000       0.010
   0.12500000 -0.31250000  0.00000000       0.010
  -0.31250000 -0.43750000  0.00000000       0.010
  -0.43750000 -0.12500000  0.00000000       0.010
  -0.43750000  0.31250000  0.00000000       0.010
   0.25000000 -0.43750000  0.00000000       0.010
  -0.31250000  0.25000000  0.00000000       0.010
   0.25000000 -0.31250000  0.00000000       0.010
  -0.31250000  0.43750000  0.00000000       0.010
   0.43750000 -0.25000000  0.00000000       0.010
  -0.31250000  0.31250000  0.00000000       0.010
   0.37500000 -0.31250000  0.00000000       0.010
  -0.31250000  0.37500000  0.00000000       0.010
   0.43750000  0.43750000  0.00000000       0.010
   0.00000000  0.43750000  0.00000000       0.010
  -0.43750000 -0.00000000  0.00000000       0.010
  -0.43750000  0.43750000  0.00000000       0.010
   0.12500000 -0.43750000  0.00000000       0.010
  -0.43750000  0.12500000  0.00000000       0.010
 
 position of ions in fractional coordinates (direct lattice) 
   0.33934189  0.33244356  0.54427055
   0.00455188  0.01809239  0.69826898
   0.01082890  0.19933891  0.66484866
   0.88555978  0.21542093  0.71605684
   0.89683584  0.89902911  0.70192826
   0.21990527  0.90250192  0.70968106
   0.50216607  0.00394927  0.39441784
   0.50173592  0.49482435  0.61832594
   0.00534332  0.49119854  0.62105388
   0.50642684  0.99120149  0.61877215
   0.00107615  0.99010181  0.62553369
   0.00291085  0.00358528  0.39448330
   0.84053269  0.33358080  0.54447378
   0.67178249  0.67082144  0.46985119
   0.17112408  0.67076527  0.47034387
   0.67162093  0.17073418  0.46984191
   0.17151367  0.17052295  0.47004266
   0.50142232  0.50378574  0.39390381
   0.00294830  0.50362763  0.39434885
   0.33829960  0.83492886  0.54461086
   0.84498985  0.83511317  0.54630159
 
 position of ions in cartesian coordinates  (Angst):
   2.80985173  1.60013307 16.76732076
   0.07557620  0.08708313 21.51154444
   0.61413428  0.95946746 20.48196579
   5.52045625  1.03687421 22.05953431
   7.48282607  4.32724946 21.62427562
   3.73019189  4.34396499 21.86311573
   2.80194312  0.01900883 12.15081435
   4.16365968  2.38171199 19.04874218
   1.39470359  2.36426007 19.13278176
   5.56912836  4.77089794 19.06248871
   2.75740435  4.76560490 19.27079117
   0.02614133  0.01725686 12.15283102
   5.59856000  1.60560690 16.77358179
   5.59783817  3.22882952 14.47468664
   2.81509307  3.22855918 14.48986472
   4.20723291  0.82178583 14.47440084
   1.42712012  0.82076911 14.48058524
   4.18681982  2.42484536 12.13497875
   1.41593201  2.42408436 12.14868907
   4.20043014  4.01871910 16.77780489
   7.01705543  4.01960625 16.82989113
 


--------------------------------------------------------------------------------------------------------


 k-point  1 :   0.0625 0.0625 0.0000  plane waves:   12325
 k-point  2 :   0.0000 0.0625 0.0000  plane waves:   12325
 k-point  3 :  -0.0625 0.0000 0.0000  plane waves:   12325
 k-point  4 :   0.1875 0.0625 0.0000  plane waves:   12294
 k-point  5 :   0.1250 0.1875 0.0000  plane waves:   12294
 k-point  6 :  -0.0625 0.1250 0.0000  plane waves:   12294
 k-point  7 :   0.1250-0.0625 0.0000  plane waves:   12294
 k-point  8 :  -0.0625-0.1875 0.0000  plane waves:   12294
 k-point  9 :  -0.1875-0.1250 0.0000  plane waves:   12294
 k-point 10 :   0.3125 0.0625 0.0000  plane waves:   12263
 k-point 11 :   0.2500 0.3125 0.0000  plane waves:   12263
 k-point 12 :  -0.0625 0.2500 0.0000  plane waves:   12263
 k-point 13 :   0.2500-0.0625 0.0000  plane waves:   12263
 k-point 14 :  -0.0625-0.3125 0.0000  plane waves:   12263
 k-point 15 :  -0.3125-0.2500 0.0000  plane waves:   12263
 k-point 16 :   0.4375 0.0625 0.0000  plane waves:   12221
 k-point 17 :   0.3750 0.4375 0.0000  plane waves:   12221
 k-point 18 :  -0.0625 0.3750 0.0000  plane waves:   12221
 k-point 19 :   0.3750-0.0625 0.0000  plane waves:   12221
 k-point 20 :  -0.0625-0.4375 0.0000  plane waves:   12221
 k-point 21 :  -0.4375-0.3750 0.0000  plane waves:   12221
 k-point 22 :  -0.4375 0.0625 0.0000  plane waves:   12211
 k-point 23 :   0.5000-0.4375 0.0000  plane waves:   12211
 k-point 24 :  -0.0625 0.5000 0.0000  plane waves:   12211
 k-point 25 :   0.5000-0.0625 0.0000  plane waves:   12211
 k-point 26 :  -0.0625 0.4375 0.0000  plane waves:   12211
 k-point 27 :   0.4375 0.5000 0.0000  plane waves:   12211
 k-point 28 :  -0.3125 0.0625 0.0000  plane waves:   12242
 k-point 29 :  -0.3750-0.3125 0.0000  plane waves:   12242
 k-point 30 :  -0.0625-0.3750 0.0000  plane waves:   12242
 k-point 31 :  -0.3750-0.0625 0.0000  plane waves:   12242
 k-point 32 :  -0.0625 0.3125 0.0000  plane waves:   12242
 k-point 33 :   0.3125 0.3750 0.0000  plane waves:   12242
 k-point 34 :  -0.1875 0.0625 0.0000  plane waves:   12280
 k-point 35 :  -0.2500-0.1875 0.0000  plane waves:   12280
 k-point 36 :  -0.0625-0.2500 0.0000  plane waves:   12280
 k-point 37 :  -0.2500-0.0625 0.0000  plane waves:   12280
 k-point 38 :  -0.0625 0.1875 0.0000  plane waves:   12280
 k-point 39 :   0.1875 0.2500 0.0000  plane waves:   12280
 k-point 40 :  -0.0625 0.0625 0.0000  plane waves:   12329
 k-point 41 :  -0.1250-0.0625 0.0000  plane waves:   12329
 k-point 42 :  -0.0625-0.1250 0.0000  plane waves:   12329
 k-point 43 :   0.1875 0.1875 0.0000  plane waves:   12277
 k-point 44 :   0.0000 0.1875 0.0000  plane waves:   12277
 k-point 45 :  -0.1875 0.0000 0.0000  plane waves:   12277
 k-point 46 :   0.3125 0.1875 0.0000  plane waves:   12288
 k-point 47 :   0.1250 0.3125 0.0000  plane waves:   12288
 k-point 48 :  -0.1875 0.1250 0.0000  plane waves:   12288
 k-point 49 :   0.1250-0.1875 0.0000  plane waves:   12288
 k-point 50 :  -0.1875-0.3125 0.0000  plane waves:   12288
 k-point 51 :  -0.3125-0.1250 0.0000  plane waves:   12288
 k-point 52 :   0.4375 0.1875 0.0000  plane waves:   12234
 k-point 53 :   0.2500 0.4375 0.0000  plane waves:   12234
 k-point 54 :  -0.1875 0.2500 0.0000  plane waves:   12234
 k-point 55 :   0.2500-0.1875 0.0000  plane waves:   12234
 k-point 56 :  -0.1875-0.4375 0.0000  plane waves:   12234
 k-point 57 :  -0.4375-0.2500 0.0000  plane waves:   12234
 k-point 58 :  -0.4375 0.1875 0.0000  plane waves:   12216
 k-point 59 :   0.3750-0.4375 0.0000  plane waves:   12216
 k-point 60 :  -0.1875 0.3750 0.0000  plane waves:   12216
 k-point 61 :   0.3750-0.1875 0.0000  plane waves:   12216
 k-point 62 :  -0.1875 0.4375 0.0000  plane waves:   12216
 k-point 63 :   0.4375-0.3750 0.0000  plane waves:   12216
 k-point 64 :  -0.3125 0.1875 0.0000  plane waves:   12215
 k-point 65 :   0.5000-0.3125 0.0000  plane waves:   12215
 k-point 66 :  -0.1875 0.5000 0.0000  plane waves:   12215
 k-point 67 :   0.5000-0.1875 0.0000  plane waves:   12215
 k-point 68 :  -0.1875 0.3125 0.0000  plane waves:   12215
 k-point 69 :   0.3125 0.5000 0.0000  plane waves:   12215
 k-point 70 :  -0.1875 0.1875 0.0000  plane waves:   12289
 k-point 71 :  -0.3750-0.1875 0.0000  plane waves:   12289
 k-point 72 :  -0.1875-0.3750 0.0000  plane waves:   12289
 k-point 73 :   0.3125 0.3125 0.0000  plane waves:   12275
 k-point 74 :   0.0000 0.3125 0.0000  plane waves:   12275
 k-point 75 :  -0.3125 0.0000 0.0000  plane waves:   12275
 k-point 76 :   0.4375 0.3125 0.0000  plane waves:   12239
 k-point 77 :   0.1250 0.4375 0.0000  plane waves:   12239
 k-point 78 :  -0.3125 0.1250 0.0000  plane waves:   12239
 k-point 79 :   0.1250-0.3125 0.0000  plane waves:   12239
 k-point 80 :  -0.3125-0.4375 0.0000  plane waves:   12239
 k-point 81 :  -0.4375-0.1250 0.0000  plane waves:   12239
 k-point 82 :  -0.4375 0.3125 0.0000  plane waves:   12235
 k-point 83 :   0.2500-0.4375 0.0000  plane waves:   12235
 k-point 84 :  -0.3125 0.2500 0.0000  plane waves:   12235
 k-point 85 :   0.2500-0.3125 0.0000  plane waves:   12235
 k-point 86 :  -0.3125 0.4375 0.0000  plane waves:   12235
 k-point 87 :   0.4375-0.2500 0.0000  plane waves:   12235
 k-point 88 :  -0.3125 0.3125 0.0000  plane waves:   12232
 k-point 89 :   0.3750-0.3125 0.0000  plane waves:   12232
 k-point 90 :  -0.3125 0.3750 0.0000  plane waves:   12232
 k-point 91 :   0.4375 0.4375 0.0000  plane waves:   12200
 k-point 92 :   0.0000 0.4375 0.0000  plane waves:   12200
 k-point 93 :  -0.4375-0.0000 0.0000  plane waves:   12200
 k-point 94 :  -0.4375 0.4375 0.0000  plane waves:   12214
 k-point 95 :   0.1250-0.4375 0.0000  plane waves:   12214
 k-point 96 :  -0.4375 0.1250 0.0000  plane waves:   12214

 maximum and minimum number of plane-waves per node :      3101     2992

 maximum number of plane-waves:     12329
 maximum index in each direction: 
   IXMAX=    8   IYMAX=    8   IZMAX=   46
   IXMIN=   -8   IYMIN=   -8   IZMIN=  -46


 real space projection operators:
  total allocation   :       5097.58 KBytes
  max/ min on nodes  :       1279.02       1270.19


 parallel 3D FFT for wavefunctions:
    minimum data exchange during FFTs selected (reduces bandwidth)
 parallel 3D FFT for charge:
    minimum data exchange during FFTs selected (reduces bandwidth)


 total amount of memory used by VASP MPI-rank0   164313. kBytes
=======================================================================

   base      :      30000. kBytes
   nonlr-proj:       2360. kBytes
   fftplans  :       2967. kBytes
   grid      :       6321. kBytes
   one-center:         93. kBytes
   wavefun   :     122572. kBytes
 
     INWAV:  cpu time    0.0000: real time    0.0000
 Broyden mixing: mesh for mixing (old mesh)
   NGX = 17   NGY = 17   NGZ = 93
  (NGX  = 56   NGY  = 56   NGZ  =288)
  gives a total of  26877 points

 initial charge density was supplied:
 charge density of overlapping atoms calculated
 number of electron     168.0000000 magnetization 
 keeping initial charge density in first step


--------------------------------------------------------------------------------------------------------


 Maximum index for non-local projection operator          544
 Maximum index for augmentation-charges          718 (set IRDMAX)


--------------------------------------------------------------------------------------------------------


 First call to EWALD:  gamma=   0.189
 Maximum number of real-space cells 5x 5x 1
 Maximum number of reciprocal cells 2x 2x 8

    FEWALD:  cpu time    0.0013: real time    0.0013


--------------------------------------- Iteration      1(   1)  ---------------------------------------


    POTLOK:  cpu time    0.0258: real time    0.0317
    SETDIJ:  cpu time    0.0035: real time    0.0035
     EDDAV:  cpu time   13.5834: real time   13.6210
       DOS:  cpu time    0.0077: real time    0.0077
    --------------------------------------------
      LOOP:  cpu time   13.6204: real time   13.6640

 eigenvalue-minimisations  : 19296
 total energy-change (2. order) : 0.1030945E+04  (-0.5832424E+04)
 number of electron     168.0000000 magnetization 
 augmentation part      168.0000000 magnetization 

 Free energy of the ion-electron system (eV)
  ---------------------------------------------------
  alpha Z        PSCENC =       324.87461712
  Ewald energy   TEWEN  =    101526.22306529
  -Hartree energ DENC   =   -113812.88123517
  -exchange      EXHF   =         0.00000000
  -V(xc)+E(xc)   XCENC  =        69.44726439
  PAW double counting   =     11288.27476651   -10829.50941267
  entropy T*S    EENTRO =        -0.00021167
  eigenvalues    EBANDS =       573.87838773
  atomic energy  EATOM  =     11890.63736546
  Solvation  Ediel_sol  =         0.00000000
  ---------------------------------------------------
  free energy    TOTEN  =      1030.94460698 eV

  energy without entropy =     1030.94481865  energy(sigma->0) =     1030.94467754


--------------------------------------------------------------------------------------------------------




--------------------------------------- Iteration      1(   2)  ---------------------------------------


     EDDAV:  cpu time   16.1157: real time   16.1615
       DOS:  cpu time    0.0085: real time    0.0085
    --------------------------------------------
      LOOP:  cpu time   16.1242: real time   16.1700

 eigenvalue-minimisations  : 23936
 total energy-change (2. order) :-0.1058578E+04  (-0.9834112E+03)
 number of electron     168.0000000 magnetization 
 augmentation part      168.0000000 magnetization 

 Free energy of the ion-electron system (eV)
  ---------------------------------------------------
  alpha Z        PSCENC =       324.87461712
  Ewald energy   TEWEN  =    101526.22306529
  -Hartree energ DENC   =   -113812.88123517
  -exchange      EXHF   =         0.00000000
  -V(xc)+E(xc)   XCENC  =        69.44726439
  PAW double counting   =     11288.27476651   -10829.50941267
  entropy T*S    EENTRO =         0.00434285
  eigenvalues    EBANDS =      -484.70437098
  atomic energy  EATOM  =     11890.63736546
  Solvation  Ediel_sol  =         0.00000000
  ---------------------------------------------------
  free energy    TOTEN  =       -27.63359721 eV

  energy without entropy =      -27.63794006  energy(sigma->0) =      -27.63504482


--------------------------------------------------------------------------------------------------------




--------------------------------------- Iteration      1(   3)  ---------------------------------------


     EDDAV:  cpu time   15.5470: real time   15.6104
       DOS:  cpu time    0.0087: real time    0.0087
    --------------------------------------------
      LOOP:  cpu time   15.5556: real time   15.6191

 eigenvalue-minimisations  : 22864
 total energy-change (2. order) :-0.9169400E+02  (-0.8472637E+02)
 number of electron     168.0000000 magnetization 
 augmentation part      168.0000000 magnetization 

 Free energy of the ion-electron system (eV)
  ---------------------------------------------------
  alpha Z        PSCENC =       324.87461712
  Ewald energy   TEWEN  =    101526.22306529
  -Hartree energ DENC   =   -113812.88123517
  -exchange      EXHF   =         0.00000000
  -V(xc)+E(xc)   XCENC  =        69.44726439
  PAW double counting   =     11288.27476651   -10829.50941267
  entropy T*S    EENTRO =        -0.00781241
  eigenvalues    EBANDS =      -576.38621300
  atomic energy  EATOM  =     11890.63736546
  Solvation  Ediel_sol  =         0.00000000
  ---------------------------------------------------
  free energy    TOTEN  =      -119.32759448 eV

  energy without entropy =     -119.31978208  energy(sigma->0) =     -119.32499035


--------------------------------------------------------------------------------------------------------




--------------------------------------- Iteration      1(   4)  ---------------------------------------


     EDDAV:  cpu time   17.0970: real time   17.1472
       DOS:  cpu time    0.0085: real time    0.0085
    --------------------------------------------
      LOOP:  cpu time   17.1055: real time   17.1557

 eigenvalue-minimisations  : 25800
 total energy-change (2. order) :-0.4583625E+01  (-0.4360722E+01)
 number of electron     168.0000000 magnetization 
 augmentation part      168.0000000 magnetization 

 Free energy of the ion-electron system (eV)
  ---------------------------------------------------
  alpha Z        PSCENC =       324.87461712
  Ewald energy   TEWEN  =    101526.22306529
  -Hartree energ DENC   =   -113812.88123517
  -exchange      EXHF   =         0.00000000
  -V(xc)+E(xc)   XCENC  =        69.44726439
  PAW double counting   =     11288.27476651   -10829.50941267
  entropy T*S    EENTRO =        -0.01314211
  eigenvalues    EBANDS =      -580.96450790
  atomic energy  EATOM  =     11890.63736546
  Solvation  Ediel_sol  =         0.00000000
  ---------------------------------------------------
  free energy    TOTEN  =      -123.91121909 eV

  energy without entropy =     -123.89807698  energy(sigma->0) =     -123.90683839


--------------------------------------------------------------------------------------------------------




--------------------------------------- Iteration      1(   5)  ---------------------------------------


     EDDAV:  cpu time   17.2304: real time   17.2826
       DOS:  cpu time    0.0089: real time    0.0089
    CHARGE:  cpu time    0.7112: real time    0.7130
    MIXING:  cpu time    0.0009: real time    0.0010
    --------------------------------------------
      LOOP:  cpu time   17.9514: real time   18.0055

 eigenvalue-minimisations  : 26064
 total energy-change (2. order) :-0.1438641E+00  (-0.1424470E+00)
 number of electron     167.9999976 magnetization 
 augmentation part       47.0482270 magnetization 

 Broyden mixing:
  rms(total) = 0.43310E+01    rms(broyden)= 0.43309E+01
  rms(prec ) = 0.43741E+01
  weight for this iteration     100.00

 Free energy of the ion-electron system (eV)
  ---------------------------------------------------
  alpha Z        PSCENC =       324.87461712
  Ewald energy   TEWEN  =    101526.22306529
  -Hartree energ DENC   =   -113812.88123517
  -exchange      EXHF   =         0.00000000
  -V(xc)+E(xc)   XCENC  =        69.44726439
  PAW double counting   =     11288.27476651   -10829.50941267
  entropy T*S    EENTRO =        -0.01383826
  eigenvalues    EBANDS =      -581.10767581
  atomic energy  EATOM  =     11890.63736546
  Solvation  Ediel_sol  =         0.00000000
  ---------------------------------------------------
  free energy    TOTEN  =      -124.05508315 eV

  energy without entropy =     -124.04124488  energy(sigma->0) =     -124.05047039


--------------------------------------------------------------------------------------------------------




--------------------------------------- Iteration      1(   6)  ---------------------------------------


    POTLOK:  cpu time    0.0236: real time    0.0239
    SETDIJ:  cpu time    0.0034: real time    0.0034
     EDDAV:  cpu time   15.3671: real time   15.4083
       DOS:  cpu time    0.0099: real time    0.0099
    CHARGE:  cpu time    0.7466: real time    0.7512
    MIXING:  cpu time    0.0010: real time    0.0010
    --------------------------------------------
      LOOP:  cpu time   16.1515: real time   16.1977

 eigenvalue-minimisations  : 22576
 total energy-change (2. order) : 0.6443798E+01  (-0.3287645E+01)
 number of electron     167.9999968 magnetization 
 augmentation part       49.9153946 magnetization 

 Broyden mixing:
  rms(total) = 0.32089E+01    rms(broyden)= 0.32088E+01
  rms(prec ) = 0.33099E+01
  weight for this iteration     100.00

 eigenvalues of (default mixing * dielectric matrix)
  average eigenvalue GAMMA=   1.2148
  1.2148

 Free energy of the ion-electron system (eV)
  ---------------------------------------------------
  alpha Z        PSCENC =       324.87461712
  Ewald energy   TEWEN  =    101526.22306529
  -Hartree energ DENC   =   -113602.73220586
  -exchange      EXHF   =         0.00000000
  -V(xc)+E(xc)   XCENC  =        66.24148016
  PAW double counting   =     12555.41739861   -12120.27920743
  entropy T*S    EENTRO =        -0.02713362
  eigenvalues    EBANDS =      -757.96666513
  atomic energy  EATOM  =     11890.63736546
  Solvation  Ediel_sol  =         0.00000000
  ---------------------------------------------------
  free energy    TOTEN  =      -117.61128539 eV

  energy without entropy =     -117.58415177  energy(sigma->0) =     -117.60224085


--------------------------------------------------------------------------------------------------------




--------------------------------------- Iteration      1(   7)  ---------------------------------------


    POTLOK:  cpu time    0.0218: real time    0.0237
    SETDIJ:  cpu time    0.0033: real time    0.0033
     EDDAV:  cpu time   15.7708: real time   15.8188
       DOS:  cpu time    0.0093: real time    0.0094
    CHARGE:  cpu time    0.7107: real time    0.7124
    MIXING:  cpu time    0.0010: real time    0.0010
    --------------------------------------------
      LOOP:  cpu time   16.5169: real time   16.5686

 eigenvalue-minimisations  : 23256
 total energy-change (2. order) :-0.2276364E+02  (-0.9752259E+01)
 number of electron     167.9999983 magnetization 
 augmentation part       48.9919138 magnetization 

 Broyden mixing:
  rms(total) = 0.44352E+01    rms(broyden)= 0.44350E+01
  rms(prec ) = 0.50463E+01
  weight for this iteration     100.00

 eigenvalues of (default mixing * dielectric matrix)
  average eigenvalue GAMMA=   1.1291
  1.9927  0.2655

 Free energy of the ion-electron system (eV)
  ---------------------------------------------------
  alpha Z        PSCENC =       324.87461712
  Ewald energy   TEWEN  =    101526.22306529
  -Hartree energ DENC   =   -113789.65329870
  -exchange      EXHF   =         0.00000000
  -V(xc)+E(xc)   XCENC  =        65.69414425
  PAW double counting   =     13543.50955063   -13117.93277862
  entropy T*S    EENTRO =         0.02437984
  eigenvalues    EBANDS =      -583.75196715
  atomic energy  EATOM  =     11890.63736546
  Solvation  Ediel_sol  =         0.00000000
  ---------------------------------------------------
  free energy    TOTEN  =      -140.37492188 eV

  energy without entropy =     -140.39930172  energy(sigma->0) =     -140.38304849


--------------------------------------------------------------------------------------------------------




--------------------------------------- Iteration      1(   8)  ---------------------------------------


    POTLOK:  cpu time    0.0217: real time    0.0219
    SETDIJ:  cpu time    0.0033: real time    0.0033
     EDDAV:  cpu time   16.2800: real time   16.3264
       DOS:  cpu time    0.0098: real time    0.0098
    CHARGE:  cpu time    0.7118: real time    0.7135
    MIXING:  cpu time    0.0011: real time    0.0011
    --------------------------------------------
      LOOP:  cpu time   17.0277: real time   17.0760

 eigenvalue-minimisations  : 24292
 total energy-change (2. order) : 0.1595044E+02  (-0.6534446E+01)
 number of electron     167.9999962 magnetization 
 augmentation part       50.5642587 magnetization 

 Broyden mixing:
  rms(total) = 0.28330E+01    rms(broyden)= 0.28329E+01
  rms(prec ) = 0.34254E+01
  weight for this iteration     100.00

 eigenvalues of (default mixing * dielectric matrix)
  average eigenvalue GAMMA=   0.9087
  2.1239  0.3011  0.3011

 Free energy of the ion-electron system (eV)
  ---------------------------------------------------
  alpha Z        PSCENC =       324.87461712
  Ewald energy   TEWEN  =    101526.22306529
  -Hartree energ DENC   =   -113673.27388820
  -exchange      EXHF   =         0.00000000
  -V(xc)+E(xc)   XCENC  =        65.14130538
  PAW double counting   =     14481.15639545   -14065.88741065
  entropy T*S    EENTRO =        -0.02530329
  eigenvalues    EBANDS =      -673.27062716
  atomic energy  EATOM  =     11890.63736546
[...]
     21      -4.9948      2.00000
     22      -4.9092      2.00000
     23      -4.7627      2.00000
     24      -4.7120      2.00000
     25      -4.5829      2.00000
     26      -4.5498      2.00000
     27      -4.4692      2.00000
     28      -4.3968      2.00000
     29      -4.3524      2.00000
     30      -4.3028      2.00000
     31      -4.2592      2.00000
     32      -4.2469      2.00000
     33      -4.0183      2.00000
     34      -3.9505      2.00000
     35      -3.8716      2.00000
     36      -3.8232      2.00000
     37      -3.7465      2.00000
     38      -3.7145      2.00000
     39      -3.6773      2.00000
     40      -3.5795      2.00000
     41      -3.5017      2.00000
     42      -3.3909      2.00000
     43      -3.3619      2.00000
     44      -3.2883      2.00000
     45      -3.2282      2.00000
     46      -3.1293      2.00000
     47      -3.0996      2.00000
     48      -3.0054      2.00000
     49      -2.9637      2.00000
     50      -2.9365      2.00000
     51      -2.8591      2.00000
     52      -2.8306      2.00000
     53      -2.7513      2.00000
     54      -2.7048      2.00000
     55      -2.5992      2.00000
     56      -2.5730      2.00000
     57      -2.4377      2.00000
     58      -2.3319      2.00000
     59      -2.1813      2.00000
     60      -2.1167      2.00000
     61      -2.0944      2.00000
     62      -1.9856      2.00000
     63      -1.9354      2.00000
     64      -1.8722      2.00000
     65      -1.7910      2.00000
     66      -1.6642      2.00000
     67      -1.6179      2.00000
     68      -1.5552      2.00000
     69      -1.4770      2.00000
     70      -1.4406      2.00000
     71      -1.3215      2.00000
     72      -1.2598      2.00000
     73      -1.2382      2.00000
     74      -1.1531      2.00000
     75      -1.1067      2.00000
     76      -1.0390      2.00000
     77      -0.8265      2.00000
     78      -0.7900      2.00000
     79      -0.7025      2.00004
     80      -0.6101      2.00059
     81      -0.4695      2.01222
     82      -0.3509      2.05640
     83      -0.2905      2.07041
     84      -0.2332      2.02250
     85      -0.1613      1.78236
     86      -0.0143      0.67662
     87       0.0654      0.16535
     88       0.1263     -0.02230
     89       0.2967     -0.03283
     90       0.7918     -0.00000
     91       0.8977     -0.00000
     92       1.3220     -0.00000
     93       2.0456     -0.00000
     94       2.2023     -0.00000
     95       2.7539     -0.00000
     96       3.0276     -0.00000
     97       3.7963     -0.00000
     98       4.0701     -0.00000
     99       4.3438     -0.00000
    100       4.5293     -0.00000

 k-point    96 :      -0.4375    0.1250    0.0000
  band No.  band energies     occupation 
      1     -13.4969      2.00000
      2      -8.0034      2.00000
      3      -7.5929      2.00000
      4      -7.3955      2.00000
      5      -6.5681      2.00000
      6      -6.5264      2.00000
      7      -6.2517      2.00000
      8      -6.1318      2.00000
      9      -6.0259      2.00000
     10      -5.9256      2.00000
     11      -5.8117      2.00000
     12      -5.6333      2.00000
     13      -5.5408      2.00000
     14      -5.4962      2.00000
     15      -5.4818      2.00000
     16      -5.3981      2.00000
     17      -5.3665      2.00000
     18      -5.1797      2.00000
     19      -5.1398      2.00000
     20      -5.0068      2.00000
     21      -4.9869      2.00000
     22      -4.9221      2.00000
     23      -4.7484      2.00000
     24      -4.7247      2.00000
     25      -4.5646      2.00000
     26      -4.5435      2.00000
     27      -4.4577      2.00000
     28      -4.4157      2.00000
     29      -4.3426      2.00000
     30      -4.3022      2.00000
     31      -4.2670      2.00000
     32      -4.2227      2.00000
     33      -3.9819      2.00000
     34      -3.9259      2.00000
     35      -3.8843      2.00000
     36      -3.8228      2.00000
     37      -3.7374      2.00000
     38      -3.7167      2.00000
     39      -3.6682      2.00000
     40      -3.6142      2.00000
     41      -3.5143      2.00000
     42      -3.4199      2.00000
     43      -3.3671      2.00000
     44      -3.3058      2.00000
     45      -3.2360      2.00000
     46      -3.1591      2.00000
     47      -3.0100      2.00000
     48      -2.9897      2.00000
     49      -2.9459      2.00000
     50      -2.9074      2.00000
     51      -2.8638      2.00000
     52      -2.8411      2.00000
     53      -2.7495      2.00000
     54      -2.6719      2.00000
     55      -2.6505      2.00000
     56      -2.5558      2.00000
     57      -2.4234      2.00000
     58      -2.3528      2.00000
     59      -2.1519      2.00000
     60      -2.1478      2.00000
     61      -2.0529      2.00000
     62      -1.9879      2.00000
     63      -1.9496      2.00000
     64      -1.8665      2.00000
     65      -1.7956      2.00000
     66      -1.6775      2.00000
     67      -1.5742      2.00000
     68      -1.5456      2.00000
     69      -1.4514      2.00000
     70      -1.4244      2.00000
     71      -1.3842      2.00000
     72      -1.2781      2.00000
     73      -1.2604      2.00000
     74      -1.1918      2.00000
     75      -1.0966      2.00000
     76      -0.9485      2.00000
     77      -0.8628      2.00000
     78      -0.7951      2.00000
     79      -0.7323      2.00002
     80      -0.5891      2.00101
     81      -0.4792      2.01030
     82      -0.4242      2.02486
     83      -0.3233      2.06689
     84      -0.1846      1.88726
     85      -0.1141      1.48866
     86      -0.0290      0.79557
     87       0.0292      0.36299
     88       0.1981     -0.07060
     89       0.3033     -0.03016
     90       0.7512     -0.00000
     91       0.8944     -0.00000
     92       1.3115     -0.00000
     93       2.0372     -0.00000
     94       2.1142     -0.00000
     95       2.7631     -0.00000
     96       2.9987     -0.00000
     97       3.6955     -0.00000
     98       3.9978     -0.00000
     99       4.3789     -0.00000
    100       4.5021     -0.00000


--------------------------------------------------------------------------------------------------------


 soft charge-density along one line, spin component           1
         0         1         2         3         4         5         6         7         8         9
 total charge-density along one line
 
 pseudopotential strength for first ion, spin component:           1
 -7.813  -0.001  -0.001  -0.009   0.000  -7.964  -0.001  -0.001
 -0.001  -7.793  -0.000  -0.001  -0.008  -0.001  -7.944  -0.000
 -0.001  -0.000  -7.808  -0.003  -0.001  -0.001  -0.000  -7.960
 -0.009  -0.001  -0.003  -7.794  -0.001  -0.009  -0.001  -0.003
  0.000  -0.008  -0.001  -0.001  -7.812   0.000  -0.008  -0.001
 -7.964  -0.001  -0.001  -0.009   0.000  -8.100  -0.001  -0.001
 -0.001  -7.944  -0.000  -0.001  -0.008  -0.001  -8.080  -0.000
 -0.001  -0.000  -7.960  -0.003  -0.001  -0.001  -0.000  -8.095
 -0.009  -0.001  -0.003  -7.946  -0.001  -0.009  -0.001  -0.003
  0.000  -0.008  -0.001  -0.001  -7.964   0.000  -0.008  -0.001
  0.000   0.000  -0.002   0.001   0.000   0.000   0.000  -0.002
  0.000   0.000  -0.003   0.002   0.000   0.000   0.000  -0.003
  0.000  -0.000  -0.000   0.000  -0.000   0.000  -0.000  -0.000
  0.000   0.000  -0.001   0.000  -0.000   0.000   0.000  -0.001
 -0.000   0.000   0.000  -0.000   0.000  -0.000   0.000   0.000
  0.000  -0.001  -0.000   0.000  -0.000   0.000  -0.001  -0.000
  0.000   0.000  -0.001   0.000  -0.000   0.000   0.000  -0.001
 -0.000   0.000   0.000  -0.001   0.000  -0.000   0.000   0.000
 total augmentation occupancy for first ion, spin component:           1
  6.086   0.078  -0.062   0.125   0.012  -4.092  -0.074   0.045  -0.251  -0.008  -0.033   0.006   0.006  -0.004   0.011   0.000
  0.078   6.288   0.004   0.038   0.156  -0.074  -4.081  -0.008  -0.054  -0.276  -0.000  -0.003  -0.005   0.001  -0.004   0.000
 -0.062   0.004   6.242  -0.054  -0.039   0.045  -0.008  -4.313   0.017   0.028   0.063  -0.029   0.002   0.026  -0.015  -0.000
  0.125   0.038  -0.054   6.221   0.054  -0.251  -0.054   0.017  -4.044  -0.055  -0.070   0.008  -0.006  -0.021   0.005   0.000
  0.012   0.156  -0.039   0.054   6.160  -0.008  -0.277   0.028  -0.054  -4.155  -0.005  -0.002   0.011   0.002   0.000  -0.000
 -4.092  -0.074   0.045  -0.251  -0.008   4.007   0.071  -0.031   0.347   0.005   0.035  -0.009  -0.008   0.005  -0.012   0.000
 -0.074  -4.081  -0.008  -0.054  -0.277   0.071   3.826   0.013   0.068   0.368   0.001   0.004  -0.000  -0.001   0.004   0.000
  0.045  -0.008  -4.313   0.017   0.028  -0.031   0.013   4.275   0.014  -0.019  -0.063   0.023  -0.002  -0.026   0.016   0.000
 -0.251  -0.054   0.017  -4.044  -0.054   0.347   0.068   0.014   3.813   0.055   0.070  -0.012   0.006   0.022  -0.009  -0.000
 -0.008  -0.276   0.028  -0.055  -4.155   0.005   0.368  -0.019   0.055   4.062   0.006   0.001  -0.012  -0.003  -0.001   0.000
 -0.033  -0.000   0.063  -0.070  -0.005   0.035   0.001  -0.063   0.070   0.006   3.052  -0.837   0.000  -0.013  -0.000  -0.000
  0.006  -0.003  -0.029   0.008  -0.002  -0.009   0.004   0.023  -0.012   0.001  -0.837   0.253  -0.000   0.002  -0.001   0.000
  0.006  -0.005   0.002  -0.006   0.011  -0.008  -0.000  -0.002   0.006  -0.012   0.000  -0.000   0.249   0.000   0.002  -0.008
 -0.004   0.001   0.026  -0.021   0.002   0.005  -0.001  -0.026   0.022  -0.003  -0.013   0.002   0.000   0.243   0.004   0.000
  0.011  -0.004  -0.015   0.005   0.000  -0.012   0.004   0.016  -0.009  -0.001  -0.000  -0.001   0.002   0.004   0.250  -0.000
  0.000   0.000  -0.000   0.000  -0.000   0.000   0.000   0.000  -0.000   0.000  -0.000   0.000  -0.008   0.000  -0.000   0.000
 -0.000   0.000  -0.001   0.001  -0.000   0.000   0.000   0.001  -0.000   0.000   0.000  -0.000   0.000  -0.008  -0.000  -0.000
 -0.000   0.000   0.000  -0.000   0.000   0.000  -0.000  -0.000   0.000  -0.000   0.000  -0.000  -0.000  -0.000  -0.009   0.000


------------------------ aborting loop because EDIFF is reached ----------------------------------------



 DIPCOR: dipole corrections for dipol
 direction  3 min pos    22,
 dipolmoment           0.000000      0.000000     -0.404738 electrons x Angstroem
 Tr[quadrupol]      -944.102233

 energy correction for charged system         0.000000 eV
 dipol+quadrupol energy correction            0.017984 eV
 added-field ion interaction          0.000000 eV  (added to PSCEN)

 
  *************** adding dipol energy to TOTEN NOW **************** 
    CHARGE:  cpu time    0.7143: real time    0.7160
    FORLOC:  cpu time    0.0069: real time    0.0069
    FORNL :  cpu time    3.1165: real time    3.1262
    STRESS:  cpu time    9.3800: real time    9.4066
    FORCOR:  cpu time    0.0282: real time    0.0283
    FORHAR:  cpu time    0.0121: real time    0.0121
    MIXING:  cpu time    0.0042: real time    0.0042
    OFIELD:  cpu time    0.0000: real time    0.0000

  FORCE on cell =-STRESS in cart. coord.  units (eV):
  Direction    XX          YY          ZZ          XY          YZ          ZX
  --------------------------------------------------------------------------------------
  Alpha Z   324.87462   324.87462   324.87462
  Ewald  110402.78544110414.36910************    31.01150    14.50153     9.11515
  Hartree112929.87803112936.16744************    12.49178     1.50669     1.89796
  E(xc)    -737.32483  -737.31553  -741.39312     0.11304     0.02933    -0.01327
  Local  ************************228483.90928   -39.86811   -11.66241    -8.87207
  n-local    45.77259    45.34233    29.08559     0.00782    -0.11075    -0.06177
  augment   835.49209   835.85087   860.57418    -0.62480    -1.10534    -0.47952
  Kinetic  2385.55868  2384.55671  2449.46665    -3.29937    -3.44291    -1.68885
  Fock        0.00000     0.00000     0.00000     0.00000     0.00000     0.00000
  -------------------------------------------------------------------------------------
  Total      -9.93715   -10.18860    -1.26949    -0.16813    -0.28387    -0.10238
  in kB     -19.31870   -19.80755    -2.46800    -0.32687    -0.55186    -0.19904
  external pressure =      -13.86 kB  Pullay stress =        0.00 kB


 VOLUME and BASIS-vectors are now :
 -----------------------------------------------------------------------------
  energy-cutoff  :      350.00
  volume of cell :      824.13
      direct lattice vectors                 reciprocal lattice vectors
     5.557859300  0.000000000  0.000000000     0.179925390 -0.103879972  0.000000000
     2.778929650  4.813247345  0.000000000     0.000000000  0.207759944  0.000000000
     0.000000000  0.000000000 30.806959674     0.000000000  0.000000000  0.032460198

  length of vectors
     5.557859300  5.557859300 30.806959674     0.207759944  0.207759944  0.032460198


 FORCES acting on ions
    electron-ion (+dipol)            ewald-force                    non-local-force                 convergence-correction
 -----------------------------------------------------------------------------------------------
   0.127E+01 0.889E+00 -.792E+03   -.132E+01 -.893E+00 0.792E+03   0.486E-01 0.179E-02 0.276E+00   -.222E-03 0.193E-03 0.801E-02
   0.111E+00 0.228E+01 -.133E+04   -.432E+00 -.407E+01 0.134E+04   0.314E+00 0.179E+01 -.308E+01   -.357E-04 -.715E-04 -.985E-03
   -.166E+02 -.254E+02 -.333E+03   0.176E+02 0.269E+02 0.334E+03   -.976E+00 -.155E+01 -.552E+00   0.154E-04 -.140E-05 -.118E-03
   0.603E+01 -.415E+02 -.347E+03   -.663E+01 0.461E+02 0.350E+03   0.610E+00 -.468E+01 -.278E+01   0.649E-05 -.799E-04 -.282E-03
   0.416E+02 0.256E+02 -.338E+03   -.464E+02 -.285E+02 0.339E+03   0.473E+01 0.293E+01 -.533E+00   0.828E-04 0.450E-04 -.262E-03
   -.392E+02 0.257E+02 -.342E+03   0.437E+02 -.286E+02 0.344E+03   -.450E+01 0.290E+01 -.178E+01   -.794E-04 0.432E-04 -.277E-03
   -.751E+00 0.155E+01 0.266E+04   0.750E+00 -.154E+01 -.266E+04   0.130E-01 0.406E-01 -.200E+00   -.575E-04 0.136E-03 -.223E-03
   -.317E+01 -.387E+01 -.258E+04   0.312E+01 0.425E+01 0.258E+04   0.120E+00 -.341E+00 0.108E+01   0.343E-03 0.184E-03 -.251E-02
   -.187E+01 -.972E+01 -.262E+04   0.191E+01 0.102E+02 0.262E+04   -.818E-01 -.473E+00 0.311E+00   -.300E-03 0.214E-03 -.247E-02
   0.345E+01 0.394E+01 -.259E+04   -.298E+01 -.452E+01 0.259E+04   -.484E+00 0.492E+00 0.120E+01   0.534E-04 -.391E-03 -.256E-02
   0.751E+01 0.200E+02 -.260E+04   -.779E+01 -.203E+02 0.260E+04   0.307E+00 0.308E+00 -.141E+01   -.873E-04 -.672E-04 -.233E-02
   0.637E+00 -.384E+00 0.295E+04   -.622E+00 0.345E+00 -.295E+04   -.570E-03 0.897E-01 -.576E+00   0.778E-04 -.289E-03 0.397E-04
   -.140E+01 0.103E+01 -.733E+03   0.141E+01 -.118E+01 0.732E+03   -.292E-01 0.194E+00 0.541E+00   0.178E-03 -.117E-03 0.747E-02
   -.139E+01 -.657E+01 0.115E+04   0.147E+01 0.684E+01 -.115E+04   -.705E-01 -.705E-01 -.183E+00   0.182E-04 0.569E-03 0.101E-01
   0.139E+01 -.617E+01 0.114E+04   -.141E+01 0.642E+01 -.114E+04   0.270E-01 -.385E-01 -.492E+00   -.289E-04 0.320E-03 0.103E-01
   0.220E+00 0.768E+01 0.116E+04   -.196E+00 -.786E+01 -.116E+04   -.353E-01 0.301E-02 -.183E+00   -.212E-03 -.458E-03 0.975E-02
   0.497E+00 0.595E+01 0.116E+04   -.499E+00 -.614E+01 -.116E+04   -.445E-02 -.532E-02 -.424E+00   0.214E-03 -.422E-03 0.979E-02
   -.251E+01 -.283E+00 0.296E+04   0.233E+01 0.281E+00 -.296E+04   0.196E+00 -.429E-01 -.685E+00   -.371E-03 0.108E-03 -.289E-03
   0.186E+01 -.980E+00 0.295E+04   -.176E+01 0.974E+00 -.295E+04   -.103E+00 -.458E-01 -.758E+00   0.387E-03 0.207E-04 -.167E-03
   -.313E+00 -.168E+01 -.732E+03   0.531E-01 0.181E+01 0.731E+03   0.269E+00 -.160E+00 0.254E+00   -.266E-03 0.712E-04 0.711E-02
   0.294E+01 0.759E+00 -.764E+03   -.234E+01 -.514E+00 0.765E+03   -.639E+00 -.224E+00 -.272E+00   0.226E-03 -.117E-03 0.685E-02
 -----------------------------------------------------------------------------------------------
   0.305E+00 -.112E+01 0.102E+02   -.697E-13 -.504E-13 0.227E-12   -.290E+00 0.113E+01 -.102E+02   -.582E-04 -.111E-03 0.569E-01
 
 
 POSITION                                       TOTAL-FORCE (eV/Angst)
 -----------------------------------------------------------------------------------
      2.80985      1.60013     16.76732        -0.004945     -0.002283      0.122641
      0.07558      0.08708     21.51154        -0.007408      0.002415      0.007850
      0.61413      0.95947     20.48197        -0.020131     -0.012892     -0.011938
      5.52046      1.03687     22.05953         0.005924     -0.008545      0.008414
      7.48283      4.32725     21.62428         0.004070     -0.000090     -0.000634
      3.73019      4.34396     21.86312         0.001401     -0.007685     -0.009058
      2.80194      0.01901     12.15081         0.011023      0.051827      1.218117
      4.16366      2.38171     19.04874         0.068974      0.039966      0.267096
      1.39470      2.36426     19.13278        -0.043938      0.002858      0.137742
      5.56913      4.77090     19.06249        -0.010060     -0.083369      0.203292
      2.75740      4.76560     19.27079         0.023746      0.002662     -0.073158
      0.02614      0.01726     12.15283         0.013696      0.050513     -0.323803
      5.59856      1.60561     16.77358        -0.025116      0.042495     -0.177000
      5.59784      3.22883     14.47469         0.003188      0.194955     -0.296173
      2.81509      3.22856     14.48986         0.016048      0.212202     -0.136396
      4.20723      0.82179     14.47440        -0.012072     -0.183403     -0.429821
      1.42712      0.82077     14.48059        -0.006198     -0.191967     -0.493448
      4.18682      2.42485     12.13498         0.015128     -0.044663     -0.072634
      1.41593      2.42408     12.14869         0.000260     -0.051768     -0.064025
      4.20043      4.01872     16.77780         0.008245     -0.033870      0.058191
      7.01706      4.01961     16.82989        -0.041835      0.020643      0.064746
 -----------------------------------------------------------------------------------
    total drift:                                0.014678      0.007620      0.007481


--------------------------------------------------------------------------------------------------------



  FREE ENERGIE OF THE ION-ELECTRON SYSTEM (eV)
  ---------------------------------------------------
  free  energy   TOTEN  =      -114.86803364 eV

  energy  without entropy=     -114.85185877  energy(sigma->0) =     -114.86264202
 


--------------------------------------------------------------------------------------------------------


    POTLOK:  cpu time    0.0261: real time    0.0262


--------------------------------------------------------------------------------------------------------


     LOOP+:  cpu time  556.7567: real time  558.4624
    4ORBIT:  cpu time    0.0000: real time    0.0000

 total amount of memory used by VASP MPI-rank0   164313. kBytes
=======================================================================

   base      :      30000. kBytes
   nonlr-proj:       2360. kBytes
   fftplans  :       2967. kBytes
   grid      :       6321. kBytes
   one-center:         93. kBytes
   wavefun   :     122572. kBytes
 
  
  
 General timing and accounting informations for this job:
 ========================================================
  
                  Total CPU time used (sec):      564.504
                            User time (sec):      562.237
                          System time (sec):        2.267
                         Elapsed time (sec):      566.430
  
                   Maximum memory used (kb):      209440.
                   Average memory used (kb):           0.
  
                          Minor page faults:        85740
                          Major page faults:            0
                 Voluntary context switches:         1048
