       N       E                     dE             d eps       ncg     rms          rms(c)
DAV:   1     0.102230469915E+04    0.10223E+04   -0.58237E+04 19264   0.103E+03
DAV:   2    -0.293570194096E+02   -0.10517E+04   -0.97695E+03 23916   0.259E+02
DAV:   3    -0.121190197785E+03   -0.91833E+02   -0.84931E+02 22928   0.757E+01
DAV:   4    -0.125660160384E+03   -0.44700E+01   -0.42503E+01 25760   0.169E+01
DAV:   5    -0.125803298243E+03   -0.14314E+00   -0.14190E+00 26824   0.297E+00    0.426E+01
DAV:   6    -0.118873179290E+03    0.69301E+01   -0.30328E+01 21864   0.207E+01    0.315E+01
DAV:   7    -0.142359382163E+03   -0.23486E+02   -0.10222E+02 23636   0.564E+01    0.441E+01
DAV:   8    -0.120819719577E+03    0.21540E+02   -0.41428E+01 24820   0.325E+01    0.203E+01
DAV:   9    -0.124511503948E+03   -0.36918E+01   -0.55754E+01 23296   0.331E+01    0.257E+01
DAV:  10    -0.124635449995E+03   -0.12395E+00   -0.29144E+01 27420   0.355E+01    0.276E+01
DAV:  11    -0.118256874744E+03    0.63786E+01   -0.24293E+01 32816   0.272E+01    0.151E+01
DAV:  12    -0.116198603885E+03    0.20583E+01   -0.73243E+00 22068   0.121E+01    0.625E+00
DAV:  13    -0.116050043738E+03    0.14856E+00   -0.21016E+00 27688   0.532E+00    0.402E+00
DAV:  14    -0.115968056541E+03    0.81987E-01   -0.41066E-01 27532   0.318E+00    0.261E+00
DAV:  15    -0.115960238958E+03    0.78176E-02   -0.38411E-02 21680   0.816E-01    0.203E+00
DAV:  16    -0.115965716118E+03   -0.54772E-02   -0.94133E-02 23132   0.128E+00    0.195E+00
DAV:  17    -0.115946933808E+03    0.18782E-01   -0.12835E-01 21652   0.134E+00    0.633E-01
DAV:  18    -0.115945789082E+03    0.11447E-02   -0.14111E-02 21632   0.519E-01    0.548E-01
DAV:  19    -0.115943936918E+03    0.18522E-02   -0.44875E-03 26640   0.277E-01    0.391E-01
DAV:  20    -0.115943708259E+03    0.22866E-03   -0.28383E-03 27104   0.228E-01    0.278E-01
DAV:  21    -0.115943832480E+03   -0.12422E-03   -0.16765E-03 23120   0.186E-01    0.223E-01
DAV:  22    -0.115943677885E+03    0.15460E-03   -0.19281E-04 21908   0.608E-02    0.193E-01
DAV:  23    -0.115943562213E+03    0.11567E-03   -0.39444E-04 22440   0.980E-02    0.113E-01
DAV:  24    -0.115943576211E+03   -0.13998E-04   -0.20854E-04 23104   0.612E-02    0.667E-02
DAV:  25    -0.115943644454E+03   -0.68244E-04   -0.14551E-04 19164   0.520E-02    0.343E-02
DAV:  26    -0.115943718903E+03   -0.74449E-04   -0.34909E-05 13224   0.242E-02    0.299E-02
DAV:  27    -0.115943785500E+03   -0.66597E-04   -0.16424E-05 11980   0.180E-02    0.218E-02
DAV:  28    -0.115943887942E+03   -0.10244E-03   -0.10909E-05 12672   0.108E-02    0.213E-02
DAV:  29    -0.115944045548E+03   -0.15761E-03   -0.37283E-05 13168   0.234E-02    0.268E-02
DAV:  30    -0.115944154045E+03   -0.10850E-03   -0.11252E-05 12784   0.130E-02    0.290E-02
DAV:  31    -0.115944233026E+03   -0.78981E-04   -0.16795E-05 11952   0.141E-02    0.104E-02
DAV:  32    -0.115944274329E+03   -0.41303E-04   -0.33187E-06 11272   0.706E-03    0.110E-02
DAV:  33    -0.115944286484E+03   -0.12155E-04   -0.11033E-06 10460   0.425E-03    0.802E-03
DAV:  34    -0.115944311306E+03   -0.24822E-04   -0.29832E-06 11036   0.554E-03    0.226E-03
DAV:  35    -0.115944318326E+03   -0.70196E-05   -0.47566E-07 10480   0.250E-03
   1 F= -.11594300E+03 E0= -.11592964E+03  d E =-.400850E-01
