 vasp.5.4.4.18Apr17-6-g9f103f2a35 (build Apr 28 2017 10:53:45) complex          
  
 executed on             LinuxIFC date 2019.07.18  16:44:57
 running on   16 total cores
 distrk:  each k-point on   16 cores,    1 groups
 distr:  one band on NCORES_PER_BAND=   4 cores,    4 groups


--------------------------------------------------------------------------------------------------------


 INCAR:
 POTCAR:    PAW_PBE Au 04Oct2007                  
 POTCAR:    PAW_PBE C 08Apr2002                   
 POTCAR:    PAW_PBE H 15Jun2001                   
 POTCAR:    PAW_PBE Ir 06Sep2000                  
 POTCAR:    PAW_PBE Pt 04Feb2005                  
 POTCAR:    PAW_PBE Au 04Oct2007                  
   VRHFIN =Au: s1d10                                                            
   LEXCH  = PE                                                                  
   EATOM  =   926.0867 eV,   68.0654 Ry                                         
                                                                                
   TITEL  = PAW_PBE Au 04Oct2007                                                
   LULTRA =        F    use ultrasoft PP ?                                      
   IUNSCR =        1    unscreen: 0-lin 1-nonlin 2-no                           
   RPACOR =    2.330    partial core radius                                     
   POMASS =  196.966; ZVAL   =   11.000    mass and valenz                      
   RCORE  =    2.500    outmost cutoff radius                                   
   RWIGS  =    2.840; RWIGS  =    1.503    wigner-seitz radius (au A)           
   ENMAX  =  229.943; ENMIN  =  172.457 eV                                      
   ICORE  =        3    local potential                                         
   LCOR   =        T    correct aug charges                                     
   LPAW   =        T    paw PP                                                  
   EAUG   =  356.670                                                            
   DEXC   =    0.000                                                            
   RMAX   =    2.562    core radius for proj-oper                               
   RAUG   =    1.300    factor for augmentation sphere                          
   RDEP   =    2.598    radius for radial grids                                 
   RDEPT  =    2.193    core radius for aug-charge                              
                                                                                
   Atomic configuration                                                         
   16 entries                                                                   
     n  l   j            E        occ.                                          
     1  0  0.50    -80748.5001   2.0000                                         
     2  0  0.50    -14244.7466   2.0000                                         
     2  1  1.50    -12310.9591   6.0000                                         
     3  0  0.50     -3362.1768   2.0000                                         
     3  1  1.50     -2801.5463   6.0000                                         
     3  2  2.50     -2203.8206  10.0000                                         
     4  0  0.50      -729.8168   2.0000                                         
     4  1  1.50      -546.0527   6.0000                                         
     4  2  2.50      -325.7302  10.0000                                         
     4  3  3.50       -81.1472  14.0000                                         
     5  0  0.50      -108.3201   2.0000                                         
     5  1  1.50       -59.7479   6.0000                                         
     5  2  2.50        -6.8783  10.0000                                         
     6  0  0.50        -5.7602   1.0000                                         
     6  1  1.50        -6.8029   0.0000                                         
     5  3  2.50        -1.3606   0.0000                                         
   Description                                                                  
     l       E           TYP  RCUT    TYP  RCUT                                 
     2     -6.8782861     23  2.500                                             
     2     -8.2388687     23  2.500                                             
     0     -5.7601759     23  2.500                                             
     0     -0.8493231     23  2.500                                             
     1     -2.7211652     23  2.500                                             
     1     27.2116520     23  2.500                                             
     3     -1.3605826     23  2.500                                             
  local pseudopotential read in
  partial core-charges read in
  partial kinetic energy density read in
  atomic valenz-charges read in
  non local Contribution for L=           2  read in
    real space projection operators read in
  non local Contribution for L=           2  read in
    real space projection operators read in
  non local Contribution for L=           0  read in
    real space projection operators read in
  non local Contribution for L=           0  read in
    real space projection operators read in
  non local Contribution for L=           1  read in
    real space projection operators read in
  non local Contribution for L=           1  read in
    real space projection operators read in
    PAW grid and wavefunctions read in
 
   number of l-projection  operators is LMAX  =           6
   number of lm-projection operators is LMMAX =          18
 
 POTCAR:    PAW_PBE C 08Apr2002                   
   VRHFIN =C: s2p2                                                              
   LEXCH  = PE                                                                  
   EATOM  =   147.1560 eV,   10.8157 Ry                                         
                                                                                
   TITEL  = PAW_PBE C 08Apr2002                                                 
   LULTRA =        F    use ultrasoft PP ?                                      
   IUNSCR =        1    unscreen: 0-lin 1-nonlin 2-no                           
   RPACOR =    1.200    partial core radius                                     
   POMASS =   12.011; ZVAL   =    4.000    mass and valenz                      
   RCORE  =    1.500    outmost cutoff radius                                   
   RWIGS  =    1.630; RWIGS  =    0.863    wigner-seitz radius (au A)           
   ENMAX  =  400.000; ENMIN  =  300.000 eV                                      
   ICORE  =        2    local potential                                         
   LCOR   =        T    correct aug charges                                     
   LPAW   =        T    paw PP                                                  
   EAUG   =  644.873                                                            
   DEXC   =    0.000                                                            
   RMAX   =    1.529    core radius for proj-oper                               
   RAUG   =    1.300    factor for augmentation sphere                          
   RDEP   =    1.501    radius for radial grids                                 
   RDEPT  =    1.300    core radius for aug-charge                              
                                                                                
   Atomic configuration                                                         
    4 entries                                                                   
     n  l   j            E        occ.                                          
     1  0  0.50      -273.3789   2.0000                                         
     2  0  0.50       -13.7508   2.0000                                         
     2  1  0.50        -5.2854   2.0000                                         
     3  2  1.50        -5.4423   0.0000                                         
   Description                                                                  
     l       E           TYP  RCUT    TYP  RCUT                                 
     0    -13.7508458     23  1.200                                             
     0     -8.2022199     23  1.200                                             
     1     -5.2854383     23  1.500                                             
     1     34.0145650     23  1.500                                             
     2     -5.4423304      7  1.500                                             
  local pseudopotential read in
  partial core-charges read in
  partial kinetic energy density read in
  atomic valenz-charges read in
  non local Contribution for L=           0  read in
    real space projection operators read in
  non local Contribution for L=           0  read in
    real space projection operators read in
  non local Contribution for L=           1  read in
    real space projection operators read in
  non local Contribution for L=           1  read in
    real space projection operators read in
    PAW grid and wavefunctions read in
 
   number of l-projection  operators is LMAX  =           4
   number of lm-projection operators is LMMAX =           8
 
 POTCAR:    PAW_PBE H 15Jun2001                   
   VRHFIN =H: ultrasoft test                                                    
   LEXCH  = PE                                                                  
   EATOM  =    12.4884 eV,    0.9179 Ry                                         
                                                                                
   TITEL  = PAW_PBE H 15Jun2001                                                 
   LULTRA =        F    use ultrasoft PP ?                                      
   IUNSCR =        0    unscreen: 0-lin 1-nonlin 2-no                           
   RPACOR =    0.000    partial core radius                                     
   POMASS =    1.000; ZVAL   =    1.000    mass and valenz                      
   RCORE  =    1.100    outmost cutoff radius                                   
   RWIGS  =    0.700; RWIGS  =    0.370    wigner-seitz radius (au A)           
   ENMAX  =  250.000; ENMIN  =  200.000 eV                                      
   RCLOC  =    0.701    cutoff for local pot                                    
   LCOR   =        T    correct aug charges                                     
   LPAW   =        T    paw PP                                                  
   EAUG   =  400.000                                                            
   RMAX   =    1.123    core radius for proj-oper                               
   RAUG   =    1.200    factor for augmentation sphere                          
   RDEP   =    1.112    radius for radial grids                                 
   RDEPT  =    0.926    core radius for aug-charge                              
                                                                                
   Atomic configuration                                                         
    2 entries                                                                   
     n  l   j            E        occ.                                          
     1  0  0.50        -6.4927   1.0000                                         
     2  1  0.50        -3.4015   0.0000                                         
   Description                                                                  
     l       E           TYP  RCUT    TYP  RCUT                                 
     0     -6.4927494     23  1.100                                             
     0      6.8029130     23  1.100                                             
     1     -4.0817478     23  1.100                                             
  local pseudopotential read in
  atomic valenz-charges read in
  non local Contribution for L=           0  read in
    real space projection operators read in
  non local Contribution for L=           0  read in
    real space projection operators read in
  non local Contribution for L=           1  read in
    real space projection operators read in
    PAW grid and wavefunctions read in
 
   number of l-projection  operators is LMAX  =           3
   number of lm-projection operators is LMMAX =           5
 
 POTCAR:    PAW_PBE Ir 06Sep2000                  
   VRHFIN =Ir: s1d8                                                             
   LEXCH  = PE                                                                  
   EATOM  =   560.1833 eV,   41.1723 Ry                                         
                                                                                
   TITEL  = PAW_PBE Ir 06Sep2000                                                
   LULTRA =        F    use ultrasoft PP ?                                      
   IUNSCR =        1    unscreen: 0-lin 1-nonlin 2-no                           
   RPACOR =    2.250    partial core radius                                     
   POMASS =  192.220; ZVAL   =    9.000    mass and valenz                      
   RCORE  =    2.600    outmost cutoff radius                                   
   RWIGS  =    2.690; RWIGS  =    1.423    wigner-seitz radius (au A)           
   ENMAX  =  210.864; ENMIN  =  158.148 eV                                      
   RCLOC  =    1.857    cutoff for local pot                                    
   LCOR   =        T    correct aug charges                                     
   LPAW   =        T    paw PP                                                  
   EAUG   =  318.962                                                            
   DEXC   =    0.000                                                            
   RMAX   =    2.667    core radius for proj-oper                               
   RAUG   =    1.300    factor for augmentation sphere                          
   RDEP   =    2.748    radius for radial grids                                 
   RDEPT  =    2.300    core radius for aug-charge                              
                                                                                
   Atomic configuration                                                         
   16 entries                                                                   
     n  l   j            E        occ.                                          
     1  0  0.50    -76100.0449   2.0000                                         
     2  0  0.50    -13308.1683   2.0000                                         
     2  1  1.50    -11558.0021   6.0000                                         
     3  0  0.50     -3110.7274   2.0000                                         
     3  1  1.50     -2599.2109   6.0000                                         
     3  2  2.50     -2037.1515  10.0000                                         
     4  0  0.50      -661.6001   2.0000                                         
     4  1  1.50      -493.8981   6.0000                                         
     4  2  2.50      -288.1909  10.0000                                         
     4  3  3.50       -59.5718  14.0000                                         
     5  0  0.50       -95.3879   2.0000                                         
     5  1  1.50       -52.2747   6.0000                                         
     5  2  2.50        -5.4180   8.0000                                         
     6  0  0.50        -5.5479   1.0000                                         
     6  1  1.50        -6.8029   0.0000                                         
     5  3  2.50        -1.3606   0.0000                                         
   Description                                                                  
     l       E           TYP  RCUT    TYP  RCUT                                 
     2     -5.4179967     23  2.600                                             
     2     -6.7785793     23  2.600                                             
     0     -5.5478636     23  2.600                                             
     0      2.2542272     23  2.600                                             
     1     -2.7211652     23  2.600                                             
     1     20.4087390     23  2.600                                             
  local pseudopotential read in
  partial core-charges read in
  partial kinetic energy density read in
  atomic valenz-charges read in
  non local Contribution for L=           2  read in
    real space projection operators read in
  non local Contribution for L=           2  read in
    real space projection operators read in
  non local Contribution for L=           0  read in
    real space projection operators read in
  non local Contribution for L=           0  read in
    real space projection operators read in
  non local Contribution for L=           1  read in
    real space projection operators read in
  non local Contribution for L=           1  read in
    real space projection operators read in
    PAW grid and wavefunctions read in
 
   number of l-projection  operators is LMAX  =           6
   number of lm-projection operators is LMMAX =          18
 
 POTCAR:    PAW_PBE Pt 04Feb2005                  
   VRHFIN =Pt: s1d9                                                             
   LEXCH  = PE                                                                  
   EATOM  =   729.1176 eV,   53.5886 Ry                                         
                                                                                
   TITEL  = PAW_PBE Pt 04Feb2005                                                
   LULTRA =        F    use ultrasoft PP ?                                      
   IUNSCR =        1    unscreen: 0-lin 1-nonlin 2-no                           
   RPACOR =    2.330    partial core radius                                     
   POMASS =  195.080; ZVAL   =   10.000    mass and valenz                      
   RCORE  =    2.600    outmost cutoff radius                                   
   RWIGS  =    2.750; RWIGS  =    1.455    wigner-seitz radius (au A)           
   ENMAX  =  230.283; ENMIN  =  172.712 eV                                      
   ICORE  =        3    local potential                                         
   LCOR   =        T    correct aug charges                                     
   LPAW   =        T    paw PP                                                  
   EAUG   =  358.966                                                            
   DEXC   =    0.000                                                            
   RMAX   =    2.658    core radius for proj-oper                               
   RAUG   =    1.300    factor for augmentation sphere                          
   RDEP   =    2.761    radius for radial grids                                 
   RDEPT  =    2.203    core radius for aug-charge                              
                                                                                
   Atomic configuration                                                         
   16 entries                                                                   
     n  l   j            E        occ.                                          
     1  0  0.50    -78401.1885   2.0000                                         
     2  0  0.50    -13770.7750   2.0000                                         
     2  1  1.50    -11931.0468   6.0000                                         
     3  0  0.50     -3234.7234   2.0000                                         
     3  1  1.50     -2699.2216   6.0000                                         
     3  2  2.50     -2119.5714  10.0000                                         
     4  0  0.50      -695.1528   2.0000                                         
     4  1  1.50      -519.6034   6.0000                                         
     4  2  2.50      -306.6786  10.0000                                         
     4  3  3.50       -70.1041  14.0000                                         
     5  0  0.50      -101.7747   2.0000                                         
     5  1  1.50       -55.9873   6.0000                                         
     5  2  2.50        -6.1423   9.0000                                         
     6  0  0.50        -5.6573   1.0000                                         
     6  1  1.50        -6.8029   0.0000                                         
     5  3  2.50        -1.3606   0.0000                                         
   Description                                                                  
     l       E           TYP  RCUT    TYP  RCUT                                 
     2     -6.1423404     23  2.500                                             
     2     -7.5029230     23  2.500                                             
     0     -5.6573207     23  2.500                                             
     0      0.7416693     23  2.500                                             
     1     -2.7211652     23  2.600                                             
     1     20.4087390     23  2.600                                             
     3     -1.3605826     23  2.500                                             
  local pseudopotential read in
  partial core-charges read in
  partial kinetic energy density read in
  atomic valenz-charges read in
  non local Contribution for L=           2  read in
    real space projection operators read in
  non local Contribution for L=           2  read in
    real space projection operators read in
  non local Contribution for L=           0  read in
    real space projection operators read in
  non local Contribution for L=           0  read in
    real space projection operators read in
  non local Contribution for L=           1  read in
    real space projection operators read in
  non local Contribution for L=           1  read in
    real space projection operators read in
    PAW grid and wavefunctions read in
 
   number of l-projection  operators is LMAX  =           6
   number of lm-projection operators is LMMAX =          18
 
 Optimization of the real space projectors (new method)

 maximal supplied QI-value         = 15.12
 optimisation between [QCUT,QGAM] = [  9.52, 19.05] = [ 25.40,101.61] Ry 
 Optimized for a Real-space Cutoff    1.57 Angstroem

   l    n(q)    QCUT    max X(q) W(low)/X(q) W(high)/X(q)  e(spline) 
   2      8     9.524    60.898    0.38E-03    0.43E-04    0.84E-07
   2      8     9.524    58.894    0.38E-03    0.47E-04    0.88E-07
   0      9     9.524   109.617    0.60E-04    0.64E-04    0.80E-07
   0      9     9.524    75.026    0.59E-04    0.62E-04    0.78E-07
   1      8     9.524    16.344    0.99E-04    0.18E-03    0.87E-07
   1      8     9.524    10.160    0.78E-04    0.15E-03    0.74E-07
 Optimization of the real space projectors (new method)

 maximal supplied QI-value         = 25.13
 optimisation between [QCUT,QGAM] = [  9.55, 19.10] = [ 25.54,102.17] Ry 
 Optimized for a Real-space Cutoff    1.39 Angstroem

   l    n(q)    QCUT    max X(q) W(low)/X(q) W(high)/X(q)  e(spline) 
   0      8     9.551   115.676    0.39E-03    0.54E-03    0.29E-06
   0      8     9.551    87.132    0.39E-03    0.54E-03    0.28E-06
   1      7     9.551     4.429    0.35E-03    0.51E-04    0.29E-06
   1      7     9.551     2.733    0.22E-03    0.42E-04    0.31E-06
 Optimization of the real space projectors (new method)

 maximal supplied QI-value         = 34.20
 optimisation between [QCUT,QGAM] = [  9.58, 19.15] = [ 25.68,102.74] Ry 
 Optimized for a Real-space Cutoff    1.31 Angstroem

   l    n(q)    QCUT    max X(q) W(low)/X(q) W(high)/X(q)  e(spline) 
   0      7     9.577    19.460    0.33E-03    0.12E-03    0.35E-06
   0      7     9.577    12.209    0.33E-03    0.11E-03    0.33E-06
   1      7     9.577     4.655    0.39E-03    0.14E-02    0.33E-06
 Optimization of the real space projectors (new method)

 maximal supplied QI-value         = 14.36
 optimisation between [QCUT,QGAM] = [  9.48, 19.10] = [ 25.16,102.17] Ry 
 Optimized for a Real-space Cutoff    1.57 Angstroem

   l    n(q)    QCUT    max X(q) W(low)/X(q) W(high)/X(q)  e(spline) 
   2      8     9.479   134.116    0.18E-03    0.75E-03    0.26E-06
   2      8     9.479   130.192    0.18E-03    0.75E-03    0.27E-06
   0      9     9.479    60.310    0.39E-03    0.24E-03    0.63E-07
   0      9     9.479    39.218    0.36E-03    0.22E-03    0.59E-07
   1      8     9.479    18.439    0.20E-03    0.15E-03    0.16E-06
   1      8     9.479    12.760    0.16E-03    0.11E-03    0.13E-06
 Optimization of the real space projectors (new method)

 maximal supplied QI-value         = 14.36
 optimisation between [QCUT,QGAM] = [  9.48, 19.10] = [ 25.16,102.17] Ry 
 Optimized for a Real-space Cutoff    1.57 Angstroem

   l    n(q)    QCUT    max X(q) W(low)/X(q) W(high)/X(q)  e(spline) 
   2      8     9.479    66.195    0.35E-03    0.53E-04    0.87E-07
   2      8     9.479    64.643    0.35E-03    0.57E-04    0.91E-07
   0      9     9.479    95.520    0.50E-04    0.62E-04    0.81E-07
   0      9     9.479    63.403    0.49E-04    0.60E-04    0.78E-07
   1      8     9.479    19.961    0.10E-03    0.87E-04    0.11E-06
   1      8     9.479    13.289    0.88E-04    0.71E-04    0.97E-07
  PAW_PBE Au 04Oct2007                  :
 energy of atom  1       EATOM= -926.0867
 kinetic energy error for atom=    0.0152 (will be added to EATOM!!)
  PAW_PBE C 08Apr2002                   :
 energy of atom  2       EATOM= -147.1560
 kinetic energy error for atom=    0.0854 (will be added to EATOM!!)
  PAW_PBE H 15Jun2001                   :
 energy of atom  3       EATOM=  -12.4884
 kinetic energy error for atom=    0.0203 (will be added to EATOM!!)
  PAW_PBE Ir 06Sep2000                  :
 energy of atom  4       EATOM= -560.1833
 kinetic energy error for atom=    0.0056 (will be added to EATOM!!)
  PAW_PBE Pt 04Feb2005                  :
 energy of atom  5       EATOM= -729.1176
 kinetic energy error for atom=    0.0144 (will be added to EATOM!!)
 
 
 POSCAR: Au  C  H Ir Pt                          
  positions in cartesian coordinates
  No initial velocities read in
 exchange correlation table for  LEXCH =        8
   RHO(1)=    0.500       N(1)  =     2000
   RHO(2)=  100.500       N(2)  =     4000
 


--------------------------------------------------------------------------------------------------------


 ion  position               nearest neighbor table
   1  0.007  0.999  0.614-   8 2.78   9 2.78  10 2.78  10 2.78   9 2.78   8 2.78  11 2.81  13 2.82
                            21 2.82
   2  0.000  0.045  0.720-   6 1.10   4 1.10   5 1.10   3 1.10
   3  0.026  0.171  0.695-   2 1.10
   4  0.844  0.185  0.744-   2 1.10
   5  0.929  0.912  0.705-   2 1.10
   6  0.201  0.914  0.736-   2 1.10
   7  0.501  0.000  0.389-  18 2.78  19 2.78  12 2.78  12 2.78  19 2.78  18 2.78  17 2.82  14 2.83
                            16 2.83
   8  0.507  0.499  0.615-   9 2.78   1 2.78  10 2.78  10 2.78   1 2.78   9 2.78  13 2.82  11 2.82
                            20 2.82
   9  0.007  0.499  0.615-   8 2.78   1 2.78  10 2.78  10 2.78   1 2.78   8 2.78  20 2.82  21 2.83
                            13 2.83
  10  0.507  0.999  0.615-   8 2.78   1 2.78   9 2.78   9 2.78   1 2.78   8 2.78  21 2.82  20 2.82
                            11 2.83
  11  0.338  0.833  0.539-  20 2.78  13 2.78  21 2.78  21 2.78  13 2.78  20 2.78  14 2.79  17 2.80
                            15 2.80   1 2.81   8 2.82  10 2.83
  12  0.001  0.000  0.389-  19 2.78   7 2.78  18 2.78  18 2.78   7 2.78  19 2.78  16 2.82  15 2.82
                            17 2.83
  13  0.838  0.333  0.539-  11 2.78  21 2.78  20 2.78  21 2.78  20 2.78  11 2.78  17 2.79  14 2.80
                            16 2.80   8 2.82   1 2.82   9 2.83
  14  0.669  0.667  0.465-  16 2.78  17 2.78  15 2.78  15 2.78  17 2.78  16 2.78  11 2.79  13 2.80
                            21 2.80  19 2.82   7 2.83  18 2.83
  15  0.169  0.667  0.465-  16 2.78  17 2.78  14 2.78  14 2.78  17 2.78  16 2.78  21 2.79  20 2.80
                            11 2.80  18 2.82  12 2.82  19 2.83
  16  0.669  0.167  0.465-  15 2.78  14 2.78  17 2.78  17 2.78  14 2.78  15 2.78  20 2.80  21 2.80
                            13 2.80  12 2.82  18 2.82   7 2.83
  17  0.169  0.167  0.465-  14 2.78  15 2.78  16 2.78  16 2.78  15 2.78  14 2.78  13 2.79  11 2.80
                            20 2.81   7 2.82  19 2.82  12 2.83
  18  0.501  0.500  0.389-  19 2.78   7 2.78  12 2.78  12 2.78   7 2.78  19 2.78  15 2.82  16 2.82
                            14 2.83
  19  0.001  0.500  0.389-  18 2.78   7 2.78  12 2.78  12 2.78   7 2.78  18 2.78  14 2.82  17 2.82
                            15 2.83
  20  0.338  0.333  0.539-  21 2.78  11 2.78  13 2.78  13 2.78  11 2.78  21 2.78  16 2.80  15 2.80
                            17 2.81   9 2.82  10 2.82   8 2.82
  21  0.838  0.833  0.539-  20 2.78  11 2.78  13 2.78  13 2.78  11 2.78  20 2.78  15 2.79  16 2.80
                            14 2.80  10 2.82   1 2.82   9 2.83
 
  LATTYP: Found a hexagonal cell.
 ALAT       =     5.5578593001
 C/A-ratio  =     5.5429542221
  
  Lattice vectors:
  
 A1 = (   2.7789296501,  -4.8132473446,   0.0000000000)
 A2 = (  -5.5578593001,   0.0000000000,   0.0000000000)
 A3 = (   0.0000000000,   0.0000000000, -30.8069596737)


Analysis of symmetry for initial positions (statically):
=====================================================================
 Subroutine PRICEL returns:
 Original cell was already a primitive cell.
 

 Routine SETGRP: Setting up the symmetry group for a 
 hexagonal supercell.


 Subroutine GETGRP returns: Found  1 space group operations
 (whereof  1 operations were pure point group operations)
 out of a pool of 24 trial point group operations.


The static configuration has the point symmetry C_1 .


Analysis of symmetry for dynamics (positions and initial velocities):
=====================================================================
 Subroutine PRICEL returns:
 Original cell was already a primitive cell.
 

 Routine SETGRP: Setting up the symmetry group for a 
 hexagonal supercell.


 Subroutine GETGRP returns: Found  1 space group operations
 (whereof  1 operations were pure point group operations)
 out of a pool of 24 trial point group operations.


The dynamic configuration has the point symmetry C_1 .


 Subroutine INISYM returns: Found  1 space group operations
 (whereof  1 operations are pure point group operations),
 and found     1 'primitive' translations

 
 
 KPOINTS: 0.1.Ir1.Au12                            

Automatic generation of k-mesh.
Space group operators:
 irot       det(A)        alpha          n_x          n_y          n_z        tau_x        tau_y        tau_z
    1     1.000000     0.000001     1.000000     0.000000     0.000000     0.000000     0.000000     0.000000
 
 Subroutine IBZKPT returns following result:
 ===========================================
 
 Found     96 irreducible k-points:
 
 Following reciprocal coordinates:
            Coordinates               Weight
  0.062500  0.062500  0.000000     16.000000
  0.000000  0.062500  0.000000     16.000000
 -0.062500  0.000000  0.000000     16.000000
  0.187500  0.062500  0.000000     16.000000
  0.125000  0.187500  0.000000     16.000000
 -0.062500  0.125000  0.000000     16.000000
  0.125000 -0.062500  0.000000     16.000000
 -0.062500 -0.187500  0.000000     16.000000
 -0.187500 -0.125000  0.000000     16.000000
  0.312500  0.062500  0.000000     16.000000
  0.250000  0.312500  0.000000     16.000000
 -0.062500  0.250000  0.000000     16.000000
  0.250000 -0.062500  0.000000     16.000000
 -0.062500 -0.312500  0.000000     16.000000
 -0.312500 -0.250000  0.000000     16.000000
  0.437500  0.062500  0.000000     16.000000
  0.375000  0.437500  0.000000     16.000000
 -0.062500  0.375000  0.000000     16.000000
  0.375000 -0.062500  0.000000     16.000000
 -0.062500 -0.437500  0.000000     16.000000
 -0.437500 -0.375000  0.000000     16.000000
 -0.437500  0.062500  0.000000     16.000000
  0.500000 -0.437500  0.000000     16.000000
 -0.062500  0.500000  0.000000     16.000000
  0.500000 -0.062500  0.000000     16.000000
 -0.062500  0.437500  0.000000     16.000000
  0.437500  0.500000  0.000000     16.000000
 -0.312500  0.062500  0.000000     16.000000
 -0.375000 -0.312500  0.000000     16.000000
 -0.062500 -0.375000  0.000000     16.000000
 -0.375000 -0.062500  0.000000     16.000000
 -0.062500  0.312500  0.000000     16.000000
  0.312500  0.375000  0.000000     16.000000
 -0.187500  0.062500  0.000000     16.000000
 -0.250000 -0.187500  0.000000     16.000000
 -0.062500 -0.250000  0.000000     16.000000
 -0.250000 -0.062500  0.000000     16.000000
 -0.062500  0.187500  0.000000     16.000000
  0.187500  0.250000  0.000000     16.000000
 -0.062500  0.062500  0.000000     16.000000
 -0.125000 -0.062500  0.000000     16.000000
 -0.062500 -0.125000  0.000000     16.000000
  0.187500  0.187500  0.000000     16.000000
  0.000000  0.187500  0.000000     16.000000
 -0.187500  0.000000  0.000000     16.000000
  0.312500  0.187500  0.000000     16.000000
  0.125000  0.312500  0.000000     16.000000
 -0.187500  0.125000  0.000000     16.000000
  0.125000 -0.187500  0.000000     16.000000
 -0.187500 -0.312500  0.000000     16.000000
 -0.312500 -0.125000  0.000000     16.000000
  0.437500  0.187500  0.000000     16.000000
  0.250000  0.437500  0.000000     16.000000
 -0.187500  0.250000  0.000000     16.000000
  0.250000 -0.187500  0.000000     16.000000
 -0.187500 -0.437500  0.000000     16.000000
 -0.437500 -0.250000  0.000000     16.000000
 -0.437500  0.187500  0.000000     16.000000
  0.375000 -0.437500  0.000000     16.000000
 -0.187500  0.375000  0.000000     16.000000
  0.375000 -0.187500  0.000000     16.000000
 -0.187500  0.437500  0.000000     16.000000
  0.437500 -0.375000  0.000000     16.000000
 -0.312500  0.187500  0.000000     16.000000
  0.500000 -0.312500  0.000000     16.000000
 -0.187500  0.500000  0.000000     16.000000
  0.500000 -0.187500  0.000000     16.000000
 -0.187500  0.312500  0.000000     16.000000
  0.312500  0.500000  0.000000     16.000000
 -0.187500  0.187500  0.000000     16.000000
 -0.375000 -0.187500  0.000000     16.000000
 -0.187500 -0.375000  0.000000     16.000000
  0.312500  0.312500  0.000000     16.000000
  0.000000  0.312500  0.000000     16.000000
 -0.312500  0.000000  0.000000     16.000000
  0.437500  0.312500  0.000000     16.000000
  0.125000  0.437500  0.000000     16.000000
 -0.312500  0.125000  0.000000     16.000000
  0.125000 -0.312500  0.000000     16.000000
 -0.312500 -0.437500  0.000000     16.000000
 -0.437500 -0.125000  0.000000     16.000000
 -0.437500  0.312500  0.000000     16.000000
  0.250000 -0.437500  0.000000     16.000000
 -0.312500  0.250000  0.000000     16.000000
  0.250000 -0.312500  0.000000     16.000000
 -0.312500  0.437500  0.000000     16.000000
  0.437500 -0.250000  0.000000     16.000000
 -0.312500  0.312500  0.000000     16.000000
  0.375000 -0.312500  0.000000     16.000000
 -0.312500  0.375000  0.000000     16.000000
  0.437500  0.437500  0.000000     16.000000
  0.000000  0.437500  0.000000     16.000000
 -0.437500 -0.000000  0.000000     16.000000
 -0.437500  0.437500  0.000000     16.000000
  0.125000 -0.437500  0.000000     16.000000
 -0.437500  0.125000  0.000000     16.000000
 
 Following cartesian coordinates:
            Coordinates               Weight
  0.011245  0.006492  0.000000     16.000000
  0.000000  0.012985  0.000000     16.000000
 -0.011245  0.006492  0.000000     16.000000
  0.033736 -0.006492  0.000000     16.000000
  0.022491  0.025970  0.000000     16.000000
 -0.011245  0.032462  0.000000     16.000000
  0.022491 -0.025970  0.000000     16.000000
 -0.011245 -0.032462  0.000000     16.000000
 -0.033736 -0.006492  0.000000     16.000000
  0.056227 -0.019477  0.000000     16.000000
  0.044981  0.038955  0.000000     16.000000
 -0.011245  0.058432  0.000000     16.000000
  0.044981 -0.038955  0.000000     16.000000
 -0.011245 -0.058432  0.000000     16.000000
 -0.056227 -0.019477  0.000000     16.000000
  0.078717 -0.032462  0.000000     16.000000
  0.067472  0.051940  0.000000     16.000000
 -0.011245  0.084402  0.000000     16.000000
  0.067472 -0.051940  0.000000     16.000000
 -0.011245 -0.084402  0.000000     16.000000
 -0.078717 -0.032462  0.000000     16.000000
 -0.078717  0.058432  0.000000     16.000000
  0.089963 -0.142835  0.000000     16.000000
 -0.011245  0.110372  0.000000     16.000000
  0.089963 -0.064925  0.000000     16.000000
 -0.011245  0.097387  0.000000     16.000000
  0.078717  0.058432  0.000000     16.000000
 -0.056227  0.045447  0.000000     16.000000
 -0.067472 -0.025970  0.000000     16.000000
 -0.011245 -0.071417  0.000000     16.000000
 -0.067472  0.025970  0.000000     16.000000
 -0.011245  0.071417  0.000000     16.000000
  0.056227  0.045447  0.000000     16.000000
 -0.033736  0.032462  0.000000     16.000000
 -0.044981 -0.012985  0.000000     16.000000
 -0.011245 -0.045447  0.000000     16.000000
 -0.044981  0.012985  0.000000     16.000000
 -0.011245  0.045447  0.000000     16.000000
  0.033736  0.032462  0.000000     16.000000
 -0.011245  0.019477  0.000000     16.000000
 -0.022491  0.000000  0.000000     16.000000
 -0.011245 -0.019477  0.000000     16.000000
  0.033736  0.019477  0.000000     16.000000
  0.000000  0.038955  0.000000     16.000000
 -0.033736  0.019477  0.000000     16.000000
  0.056227  0.006492  0.000000     16.000000
  0.022491  0.051940  0.000000     16.000000
 -0.033736  0.045447  0.000000     16.000000
  0.022491 -0.051940  0.000000     16.000000
 -0.033736 -0.045447  0.000000     16.000000
 -0.056227  0.006492  0.000000     16.000000
  0.078717 -0.006492  0.000000     16.000000
  0.044981  0.064925  0.000000     16.000000
 -0.033736  0.071417  0.000000     16.000000
  0.044981 -0.064925  0.000000     16.000000
 -0.033736 -0.071417  0.000000     16.000000
 -0.078717 -0.006492  0.000000     16.000000
 -0.078717  0.084402  0.000000     16.000000
  0.067472 -0.129850  0.000000     16.000000
 -0.033736  0.097387  0.000000     16.000000
  0.067472 -0.077910  0.000000     16.000000
 -0.033736  0.110372  0.000000     16.000000
  0.078717 -0.123357  0.000000     16.000000
 -0.056227  0.071417  0.000000     16.000000
  0.089963 -0.116865  0.000000     16.000000
 -0.033736  0.123357  0.000000     16.000000
  0.089963 -0.090895  0.000000     16.000000
 -0.033736  0.084402  0.000000     16.000000
  0.056227  0.071417  0.000000     16.000000
 -0.033736  0.058432  0.000000     16.000000
 -0.067472  0.000000  0.000000     16.000000
 -0.033736 -0.058432  0.000000     16.000000
  0.056227  0.032462  0.000000     16.000000
  0.000000  0.064925  0.000000     16.000000
 -0.056227  0.032462  0.000000     16.000000
  0.078717  0.019477  0.000000     16.000000
  0.022491  0.077910  0.000000     16.000000
 -0.056227  0.058432  0.000000     16.000000
  0.022491 -0.077910  0.000000     16.000000
 -0.056227 -0.058432  0.000000     16.000000
 -0.078717  0.019477  0.000000     16.000000
 -0.078717  0.110372  0.000000     16.000000
  0.044981 -0.116865  0.000000     16.000000
 -0.056227  0.084402  0.000000     16.000000
  0.044981 -0.090895  0.000000     16.000000
 -0.056227  0.123357  0.000000     16.000000
  0.078717 -0.097387  0.000000     16.000000
 -0.056227  0.097387  0.000000     16.000000
  0.067472 -0.103880  0.000000     16.000000
 -0.056227  0.110372  0.000000     16.000000
  0.078717  0.045447  0.000000     16.000000
  0.000000  0.090895  0.000000     16.000000
 -0.078717  0.045447  0.000000     16.000000
 -0.078717  0.136342  0.000000     16.000000
  0.022491 -0.103880  0.000000     16.000000
 -0.078717  0.071417  0.000000     16.000000
 


--------------------------------------------------------------------------------------------------------




 Dimension of arrays:
   k-points           NKPTS =     96   k-points in BZ     NKDIM =     96   number of bands    NBANDS=    100
   number of dos      NEDOS =    301   number of ions     NIONS =     21
   non local maximal  LDIM  =      6   non local SUM 2l+1 LMDIM =     18
   total plane-waves  NPLWV = 112896
   max r-space proj   IRMAX =   2252   max aug-charges    IRDMAX=  10104
   dimension x,y,z NGX =    28 NGY =   28 NGZ =  144
   dimension x,y,z NGXF=    56 NGYF=   56 NGZF=  288
   support grid    NGXF=    56 NGYF=   56 NGZF=  288
   ions per type =               1   1   4   1  14
   NGX,Y,Z   is equivalent  to a cutoff of   8.38,  8.38,  7.77 a.u.
   NGXF,Y,Z  is equivalent  to a cutoff of  16.75, 16.75, 15.54 a.u.

 SYSTEM =  0.1.Ir1.Au12                            
 POSCAR =  Au  C  H Ir Pt                          

 Startparameter for this run:
   NWRITE =      2    write-flag & timer
   PREC   = normal    normal or accurate (medium, high low for compatibility)
   ISTART =      0    job   : 0-new  1-cont  2-samecut
   ICHARG =      2    charge: 1-file 2-atom 10-const
   ISPIN  =      1    spin polarized calculation?
   LNONCOLLINEAR =      F non collinear calculations
   LSORBIT =      F    spin-orbit coupling
   INIWAV =      1    electr: 0-lowe 1-rand  2-diag
   LASPH  =      F    aspherical Exc in radial PAW
   METAGGA=      F    non-selfconsistent MetaGGA calc.

 Electronic Relaxation 1
   ENCUT  =  350.0 eV  25.72 Ry    5.07 a.u.   8.48  8.48 46.99*2*pi/ulx,y,z
   ENINI  =  350.0     initial cutoff
   ENAUG  =  644.9 eV  augmentation charge cutoff
   NELM   =   1000;   NELMIN=  5; NELMDL= -5     # of ELM steps 
   EDIFF  = 0.1E-04   stopping-criterion for ELM
   LREAL  =      T    real-space projection
   NLSPLINE    = F    spline interpolate recip. space projectors
   LCOMPAT=      F    compatible to vasp.4.4
   GGA_COMPAT  = T    GGA compatible to vasp.4.4-vasp.4.6
   LMAXPAW     = -100 max onsite density
   LMAXMIX     =    2 max onsite mixed and CHGCAR
   VOSKOWN=      0    Vosko Wilk Nusair interpolation
   ROPT   =   -0.00050  -0.00050  -0.00050  -0.00050
   ROPT   =   -0.00050
 Ionic relaxation
   EDIFFG = 0.1E-03   stopping-criterion for IOM
   NSW    =      0    number of steps for IOM
   NBLOCK =      1;   KBLOCK =      1    inner block; outer block 
   IBRION =     -1    ionic relax: 0-MD 1-quasi-New 2-CG
   NFREE  =      0    steps in history (QN), initial steepest desc. (CG)
   ISIF   =      2    stress and relaxation
   IWAVPR =     10    prediction:  0-non 1-charg 2-wave 3-comb
   ISYM   =      2    0-nonsym 1-usesym 2-fastsym
   LCORR  =      T    Harris-Foulkes like correction to forces

   POTIM  = 0.5000    time-step for ionic-motion
   TEIN   =    0.0    initial temperature
   TEBEG  =    0.0;   TEEND  =   0.0 temperature during run
   SMASS  =  -3.00    Nose mass-parameter (am)
   estimated Nose-frequenzy (Omega)   =  0.10E-29 period in steps =****** mass=  -0.706E-27a.u.
   SCALEE = 1.0000    scale energy and forces
   NPACO  =    256;   APACO  = 16.0  distance and # of slots for P.C.
   PSTRESS=    0.0 pullay stress

  Mass of Ions in am
   POMASS = 196.97 12.01  1.00192.22195.08
  Ionic Valenz
   ZVAL   =  11.00  4.00  1.00  9.00 10.00
  Atomic Wigner-Seitz radii
   RWIGS  =  -1.00 -1.00 -1.00 -1.00 -1.00
  virtual crystal weights 
   VCA    =   1.00  1.00  1.00  1.00  1.00
   NELECT =     168.0000    total number of electrons
   NUPDOWN=      -1.0000    fix difference up-down

 DOS related values:
   EMIN   =  10.00;   EMAX   =-10.00  energy-range for DOS
   EFERMI =   0.00
   ISMEAR =     1;   SIGMA  =   0.20  broadening in eV -4-tet -1-fermi 0-gaus

 Electronic relaxation 2 (details)
   IALGO  =     38    algorithm
   LDIAG  =      T    sub-space diagonalisation (order eigenvalues)
   LSUBROT=      F    optimize rotation matrix (better conditioning)
   TURBO    =      0    0=normal 1=particle mesh
   IRESTART =      0    0=no restart 2=restart with 2 vectors
   NREBOOT  =      0    no. of reboots
   NMIN     =      0    reboot dimension
   EREF     =   0.00    reference energy to select bands
   IMIX   =      4    mixing-type and parameters
     AMIX     =   0.40;   BMIX     =  1.00
     AMIX_MAG =   1.60;   BMIX_MAG =  1.00
     AMIN     =   0.10
     WC   =   100.;   INIMIX=   1;  MIXPRE=   1;  MAXMIX= -45

 Intra band minimization:
   WEIMIN = 0.0000     energy-eigenvalue tresh-hold
   EBREAK =  0.25E-07  absolut break condition
   DEPER  =   0.30     relativ break condition  

   TIME   =   0.40     timestep for ELM

  volume/ion in A,a.u.               =      39.24       264.83
  Fermi-wavevector in a.u.,A,eV,Ry     =   0.963488  1.820729 12.630418  0.928310
  Thomas-Fermi vector in A             =   2.093038
 
 Write flags
   LWAVE        =      F    write WAVECAR
   LDOWNSAMPLE  =      F    k-point downsampling of WAVECAR
   LCHARG       =      F    write CHGCAR
   LVTOT        =      F    write LOCPOT, total local potential
   LVHAR        =      F    write LOCPOT, Hartree potential only
   LELF         =      F    write electronic localiz. function (ELF)
   LORBIT       =      0    0 simple, 1 ext, 2 COOP (PROOUT), +10 PAW based schemes


 Dipole corrections
   LMONO  =      F    monopole corrections only (constant potential shift)
   LDIPOL =      F    correct potential (dipole corrections)
   IDIPOL =      3    1-x, 2-y, 3-z, 4-all directions 
   EPSILON=  1.0000000 bulk dielectric constant

 Exchange correlation treatment:
   GGA     =    --    GGA type
   LEXCH   =     8    internal setting for exchange type
   VOSKOWN=      0    Vosko Wilk Nusair interpolation
   LHFCALC =     F    Hartree Fock is set to
   LHFONE  =     F    Hartree Fock one center treatment
   AEXX    =    0.0000 exact exchange contribution

 Linear response parameters
   LEPSILON=     F    determine dielectric tensor
   LRPA    =     F    only Hartree local field effects (RPA)
   LNABLA  =     F    use nabla operator in PAW spheres
   LVEL    =     F    velocity operator in full k-point grid
   LINTERFAST=   F  fast interpolation
   KINTER  =     0    interpolate to denser k-point grid
   CSHIFT  =0.1000    complex shift for real part using Kramers Kronig
   OMEGAMAX=  -1.0    maximum frequency
   DEG_THRESHOLD= 0.2000000E-02 threshold for treating states as degnerate
   RTIME   =   -0.100 relaxation time in fs
  (WPLASMAI=    0.000 imaginary part of plasma frequency in eV, 0.658/RTIME)
   DFIELD  = 0.0000000 0.0000000 0.0000000 field for delta impulse in time
 
 Orbital magnetization related:
   ORBITALMAG=     F  switch on orbital magnetization
   LCHIMAG   =     F  perturbation theory with respect to B field
   DQ        =  0.001000  dq finite difference perturbation B field
   LLRAUG    =     F  two centre corrections for induced B field



--------------------------------------------------------------------------------------------------------


 Static calculation
 charge density and potential will be updated during run
 non-spin polarized calculation
 Variant of blocked Davidson
 Davidson routine will perform the subspace rotation
 perform sub-space diagonalisation
    after iterative eigenvector-optimisation
 modified Broyden-mixing scheme, WC =      100.0
 initial mixing is a Kerker type mixing with AMIX =  0.4000 and BMIX =      1.0000
 Hartree-type preconditioning will be used
 using additional bands           16
 real space projection scheme for non local part
 use partial core corrections
 calculate Harris-corrections to forces 
   (improved forces if not selfconsistent)
 use gradient corrections 
 use of overlap-Matrix (Vanderbilt PP)
 Methfessel and Paxton  Order N= 1 SIGMA  =   0.20


--------------------------------------------------------------------------------------------------------


  energy-cutoff  :      350.00
  volume of cell :      824.13
      direct lattice vectors                 reciprocal lattice vectors
     5.557859300  0.000000000  0.000000000     0.179925390 -0.103879972  0.000000000
     2.778929650  4.813247345  0.000000000     0.000000000  0.207759944  0.000000000
     0.000000000  0.000000000 30.806959674     0.000000000  0.000000000  0.032460198

  length of vectors
     5.557859300  5.557859300 30.806959674     0.207759944  0.207759944  0.032460198


 
 k-points in units of 2pi/SCALE and weight: 0.1.Ir1.Au12                            
   0.01124534  0.00649250  0.00000000       0.010
   0.00000000  0.01298500  0.00000000       0.010
  -0.01124534  0.00649250  0.00000000       0.010
   0.03373601 -0.00649250  0.00000000       0.010
   0.02249067  0.02596999  0.00000000       0.010
  -0.01124534  0.03246249  0.00000000       0.010
   0.02249067 -0.02596999  0.00000000       0.010
  -0.01124534 -0.03246249  0.00000000       0.010
  -0.03373601 -0.00649250  0.00000000       0.010
   0.05622668 -0.01947749  0.00000000       0.010
   0.04498135  0.03895499  0.00000000       0.010
  -0.01124534  0.05843248  0.00000000       0.010
   0.04498135 -0.03895499  0.00000000       0.010
  -0.01124534 -0.05843248  0.00000000       0.010
  -0.05622668 -0.01947749  0.00000000       0.010
   0.07871736 -0.03246249  0.00000000       0.010
   0.06747202  0.05193999  0.00000000       0.010
  -0.01124534  0.08440248  0.00000000       0.010
   0.06747202 -0.05193999  0.00000000       0.010
  -0.01124534 -0.08440248  0.00000000       0.010
  -0.07871736 -0.03246249  0.00000000       0.010
  -0.07871736  0.05843248  0.00000000       0.010
   0.08996269 -0.14283496  0.00000000       0.010
  -0.01124534  0.11037247  0.00000000       0.010
   0.08996269 -0.06492498  0.00000000       0.010
  -0.01124534  0.09738747  0.00000000       0.010
   0.07871736  0.05843248  0.00000000       0.010
  -0.05622668  0.04544749  0.00000000       0.010
  -0.06747202 -0.02596999  0.00000000       0.010
  -0.01124534 -0.07141748  0.00000000       0.010
  -0.06747202  0.02596999  0.00000000       0.010
  -0.01124534  0.07141748  0.00000000       0.010
   0.05622668  0.04544749  0.00000000       0.010
  -0.03373601  0.03246249  0.00000000       0.010
  -0.04498135 -0.01298500  0.00000000       0.010
  -0.01124534 -0.04544749  0.00000000       0.010
  -0.04498135  0.01298500  0.00000000       0.010
  -0.01124534  0.04544749  0.00000000       0.010
   0.03373601  0.03246249  0.00000000       0.010
  -0.01124534  0.01947749  0.00000000       0.010
  -0.02249067  0.00000000  0.00000000       0.010
  -0.01124534 -0.01947749  0.00000000       0.010
   0.03373601  0.01947749  0.00000000       0.010
   0.00000000  0.03895499  0.00000000       0.010
  -0.03373601  0.01947749  0.00000000       0.010
   0.05622668  0.00649250  0.00000000       0.010
   0.02249067  0.05193999  0.00000000       0.010
  -0.03373601  0.04544749  0.00000000       0.010
   0.02249067 -0.05193999  0.00000000       0.010
  -0.03373601 -0.04544749  0.00000000       0.010
  -0.05622668  0.00649250  0.00000000       0.010
   0.07871736 -0.00649250  0.00000000       0.010
   0.04498135  0.06492498  0.00000000       0.010
  -0.03373601  0.07141748  0.00000000       0.010
   0.04498135 -0.06492498  0.00000000       0.010
  -0.03373601 -0.07141748  0.00000000       0.010
  -0.07871736 -0.00649250  0.00000000       0.010
  -0.07871736  0.08440248  0.00000000       0.010
   0.06747202 -0.12984997  0.00000000       0.010
  -0.03373601  0.09738747  0.00000000       0.010
   0.06747202 -0.07790998  0.00000000       0.010
  -0.03373601  0.11037247  0.00000000       0.010
   0.07871736 -0.12335747  0.00000000       0.010
  -0.05622668  0.07141748  0.00000000       0.010
   0.08996269 -0.11686497  0.00000000       0.010
  -0.03373601  0.12335747  0.00000000       0.010
   0.08996269 -0.09089498  0.00000000       0.010
  -0.03373601  0.08440248  0.00000000       0.010
   0.05622668  0.07141748  0.00000000       0.010
  -0.03373601  0.05843248  0.00000000       0.010
  -0.06747202  0.00000000  0.00000000       0.010
  -0.03373601 -0.05843248  0.00000000       0.010
   0.05622668  0.03246249  0.00000000       0.010
   0.00000000  0.06492498  0.00000000       0.010
  -0.05622668  0.03246249  0.00000000       0.010
   0.07871736  0.01947749  0.00000000       0.010
   0.02249067  0.07790998  0.00000000       0.010
  -0.05622668  0.05843248  0.00000000       0.010
   0.02249067 -0.07790998  0.00000000       0.010
  -0.05622668 -0.05843248  0.00000000       0.010
  -0.07871736  0.01947749  0.00000000       0.010
  -0.07871736  0.11037247  0.00000000       0.010
   0.04498135 -0.11686497  0.00000000       0.010
  -0.05622668  0.08440248  0.00000000       0.010
   0.04498135 -0.09089498  0.00000000       0.010
  -0.05622668  0.12335747  0.00000000       0.010
   0.07871736 -0.09738747  0.00000000       0.010
  -0.05622668  0.09738747  0.00000000       0.010
   0.06747202 -0.10387997  0.00000000       0.010
  -0.05622668  0.11037247  0.00000000       0.010
   0.07871736  0.04544749  0.00000000       0.010
   0.00000000  0.09089498  0.00000000       0.010
  -0.07871736  0.04544749  0.00000000       0.010
  -0.07871736  0.13634246  0.00000000       0.010
   0.02249067 -0.10387997  0.00000000       0.010
  -0.07871736  0.07141748  0.00000000       0.010
 
 k-points in reciprocal lattice and weights: 0.1.Ir1.Au12                            
   0.06250000  0.06250000  0.00000000       0.010
   0.00000000  0.06250000  0.00000000       0.010
  -0.06250000  0.00000000  0.00000000       0.010
   0.18750000  0.06250000  0.00000000       0.010
   0.12500000  0.18750000  0.00000000       0.010
  -0.06250000  0.12500000  0.00000000       0.010
   0.12500000 -0.06250000  0.00000000       0.010
  -0.06250000 -0.18750000  0.00000000       0.010
  -0.18750000 -0.12500000  0.00000000       0.010
   0.31250000  0.06250000  0.00000000       0.010
   0.25000000  0.31250000  0.00000000       0.010
  -0.06250000  0.25000000  0.00000000       0.010
   0.25000000 -0.06250000  0.00000000       0.010
  -0.06250000 -0.31250000  0.00000000       0.010
  -0.31250000 -0.25000000  0.00000000       0.010
   0.43750000  0.06250000  0.00000000       0.010
   0.37500000  0.43750000  0.00000000       0.010
  -0.06250000  0.37500000  0.00000000       0.010
   0.37500000 -0.06250000  0.00000000       0.010
  -0.06250000 -0.43750000  0.00000000       0.010
  -0.43750000 -0.37500000  0.00000000       0.010
  -0.43750000  0.06250000  0.00000000       0.010
   0.50000000 -0.43750000  0.00000000       0.010
  -0.06250000  0.50000000  0.00000000       0.010
   0.50000000 -0.06250000  0.00000000       0.010
  -0.06250000  0.43750000  0.00000000       0.010
   0.43750000  0.50000000  0.00000000       0.010
  -0.31250000  0.06250000  0.00000000       0.010
  -0.37500000 -0.31250000  0.00000000       0.010
  -0.06250000 -0.37500000  0.00000000       0.010
  -0.37500000 -0.06250000  0.00000000       0.010
  -0.06250000  0.31250000  0.00000000       0.010
   0.31250000  0.37500000  0.00000000       0.010
  -0.18750000  0.06250000  0.00000000       0.010
  -0.25000000 -0.18750000  0.00000000       0.010
  -0.06250000 -0.25000000  0.00000000       0.010
  -0.25000000 -0.06250000  0.00000000       0.010
  -0.06250000  0.18750000  0.00000000       0.010
   0.18750000  0.25000000  0.00000000       0.010
  -0.06250000  0.06250000  0.00000000       0.010
  -0.12500000 -0.06250000  0.00000000       0.010
  -0.06250000 -0.12500000  0.00000000       0.010
   0.18750000  0.18750000  0.00000000       0.010
   0.00000000  0.18750000  0.00000000       0.010
  -0.18750000  0.00000000  0.00000000       0.010
   0.31250000  0.18750000  0.00000000       0.010
   0.12500000  0.31250000  0.00000000       0.010
  -0.18750000  0.12500000  0.00000000       0.010
   0.12500000 -0.18750000  0.00000000       0.010
  -0.18750000 -0.31250000  0.00000000       0.010
  -0.31250000 -0.12500000  0.00000000       0.010
   0.43750000  0.18750000  0.00000000       0.010
   0.25000000  0.43750000  0.00000000       0.010
  -0.18750000  0.25000000  0.00000000       0.010
   0.25000000 -0.18750000  0.00000000       0.010
  -0.18750000 -0.43750000  0.00000000       0.010
  -0.43750000 -0.25000000  0.00000000       0.010
  -0.43750000  0.18750000  0.00000000       0.010
   0.37500000 -0.43750000  0.00000000       0.010
  -0.18750000  0.37500000  0.00000000       0.010
   0.37500000 -0.18750000  0.00000000       0.010
  -0.18750000  0.43750000  0.00000000       0.010
   0.43750000 -0.37500000  0.00000000       0.010
  -0.31250000  0.18750000  0.00000000       0.010
   0.50000000 -0.31250000  0.00000000       0.010
  -0.18750000  0.50000000  0.00000000       0.010
   0.50000000 -0.18750000  0.00000000       0.010
  -0.18750000  0.31250000  0.00000000       0.010
   0.31250000  0.50000000  0.00000000       0.010
  -0.18750000  0.18750000  0.00000000       0.010
  -0.37500000 -0.18750000  0.00000000       0.010
  -0.18750000 -0.37500000  0.00000000       0.010
   0.31250000  0.31250000  0.00000000       0.010
   0.00000000  0.31250000  0.00000000       0.010
  -0.31250000  0.00000000  0.00000000       0.010
   0.43750000  0.31250000  0.00000000       0.010
   0.12500000  0.43750000  0.00000000       0.010
  -0.31250000  0.12500000  0.00000000       0.010
   0.12500000 -0.31250000  0.00000000       0.010
  -0.31250000 -0.43750000  0.00000000       0.010
  -0.43750000 -0.12500000  0.00000000       0.010
  -0.43750000  0.31250000  0.00000000       0.010
   0.25000000 -0.43750000  0.00000000       0.010
  -0.31250000  0.25000000  0.00000000       0.010
   0.25000000 -0.31250000  0.00000000       0.010
  -0.31250000  0.43750000  0.00000000       0.010
   0.43750000 -0.25000000  0.00000000       0.010
  -0.31250000  0.31250000  0.00000000       0.010
   0.37500000 -0.31250000  0.00000000       0.010
  -0.31250000  0.37500000  0.00000000       0.010
   0.43750000  0.43750000  0.00000000       0.010
   0.00000000  0.43750000  0.00000000       0.010
  -0.43750000 -0.00000000  0.00000000       0.010
  -0.43750000  0.43750000  0.00000000       0.010
   0.12500000 -0.43750000  0.00000000       0.010
  -0.43750000  0.12500000  0.00000000       0.010
 
 position of ions in fractional coordinates (direct lattice) 
   0.00696994  0.99907824  0.61442806
   0.00008607  0.04501296  0.72044772
   0.02564635  0.17134776  0.69517879
   0.84389545  0.18528001  0.74392310
   0.92868738  0.91198604  0.70539745
   0.20134964  0.91422738  0.73635803
   0.50070409  0.00004730  0.38941342
   0.50668248  0.49919976  0.61467685
   0.00704958  0.49924184  0.61471431
   0.50702230  0.99917167  0.61472576
   0.33815951  0.83289274  0.53927158
   0.00066605  0.00019711  0.38936341
   0.83813976  0.33294392  0.53925176
   0.66927312  0.66664633  0.46492544
   0.16932217  0.66652976  0.46479534
   0.66926822  0.16659852  0.46478785
   0.16928597  0.16657958  0.46481641
   0.50074456  0.50027167  0.38940634
   0.00051655  0.50023037  0.38941823
   0.33824268  0.33278195  0.53937141
   0.83817719  0.83290296  0.53926163
 
 position of ions in cartesian coordinates  (Angst):
   2.81510610  4.80881071 18.92866049
   0.12556623  0.21665853 22.19480377
   0.61870221  0.82473917 21.41634489
   5.20513230  0.89179854 22.91800889
   7.69585881  4.38961439 21.73115082
   3.65964655  4.40040249 22.68495215
   2.78297436  0.00022769 11.99664354
   4.20331093  2.40277190 18.93632493
   1.42653851  2.40297446 18.93747893
   5.59458639  4.80926037 18.93783179
   4.19399333  4.00891877 16.61331786
   0.00424956  0.00094874 11.99510299
   5.58349061  1.60254142 16.61270711
   5.57228906  3.20873367 14.32293920
   2.79330812  3.20817259 14.31893122
   4.18266418  0.80187990 14.31870053
   1.40378052  0.80178871 14.31958051
   4.17328758  2.40793129 11.99642543
   1.39297592  2.40773250 11.99679172
   2.80468286  1.60176186 16.61639338
   6.97304959  4.00896794 16.61301121
 


--------------------------------------------------------------------------------------------------------


 k-point  1 :   0.0625 0.0625 0.0000  plane waves:   12325
 k-point  2 :   0.0000 0.0625 0.0000  plane waves:   12325
 k-point  3 :  -0.0625 0.0000 0.0000  plane waves:   12325
 k-point  4 :   0.1875 0.0625 0.0000  plane waves:   12294
 k-point  5 :   0.1250 0.1875 0.0000  plane waves:   12294
 k-point  6 :  -0.0625 0.1250 0.0000  plane waves:   12294
 k-point  7 :   0.1250-0.0625 0.0000  plane waves:   12294
 k-point  8 :  -0.0625-0.1875 0.0000  plane waves:   12294
 k-point  9 :  -0.1875-0.1250 0.0000  plane waves:   12294
 k-point 10 :   0.3125 0.0625 0.0000  plane waves:   12263
 k-point 11 :   0.2500 0.3125 0.0000  plane waves:   12263
 k-point 12 :  -0.0625 0.2500 0.0000  plane waves:   12263
 k-point 13 :   0.2500-0.0625 0.0000  plane waves:   12263
 k-point 14 :  -0.0625-0.3125 0.0000  plane waves:   12263
 k-point 15 :  -0.3125-0.2500 0.0000  plane waves:   12263
 k-point 16 :   0.4375 0.0625 0.0000  plane waves:   12221
 k-point 17 :   0.3750 0.4375 0.0000  plane waves:   12221
 k-point 18 :  -0.0625 0.3750 0.0000  plane waves:   12221
 k-point 19 :   0.3750-0.0625 0.0000  plane waves:   12221
 k-point 20 :  -0.0625-0.4375 0.0000  plane waves:   12221
 k-point 21 :  -0.4375-0.3750 0.0000  plane waves:   12221
 k-point 22 :  -0.4375 0.0625 0.0000  plane waves:   12211
 k-point 23 :   0.5000-0.4375 0.0000  plane waves:   12211
 k-point 24 :  -0.0625 0.5000 0.0000  plane waves:   12211
 k-point 25 :   0.5000-0.0625 0.0000  plane waves:   12211
 k-point 26 :  -0.0625 0.4375 0.0000  plane waves:   12211
 k-point 27 :   0.4375 0.5000 0.0000  plane waves:   12211
 k-point 28 :  -0.3125 0.0625 0.0000  plane waves:   12242
 k-point 29 :  -0.3750-0.3125 0.0000  plane waves:   12242
 k-point 30 :  -0.0625-0.3750 0.0000  plane waves:   12242
 k-point 31 :  -0.3750-0.0625 0.0000  plane waves:   12242
 k-point 32 :  -0.0625 0.3125 0.0000  plane waves:   12242
 k-point 33 :   0.3125 0.3750 0.0000  plane waves:   12242
 k-point 34 :  -0.1875 0.0625 0.0000  plane waves:   12280
 k-point 35 :  -0.2500-0.1875 0.0000  plane waves:   12280
 k-point 36 :  -0.0625-0.2500 0.0000  plane waves:   12280
 k-point 37 :  -0.2500-0.0625 0.0000  plane waves:   12280
 k-point 38 :  -0.0625 0.1875 0.0000  plane waves:   12280
 k-point 39 :   0.1875 0.2500 0.0000  plane waves:   12280
 k-point 40 :  -0.0625 0.0625 0.0000  plane waves:   12329
 k-point 41 :  -0.1250-0.0625 0.0000  plane waves:   12329
 k-point 42 :  -0.0625-0.1250 0.0000  plane waves:   12329
 k-point 43 :   0.1875 0.1875 0.0000  plane waves:   12277
 k-point 44 :   0.0000 0.1875 0.0000  plane waves:   12277
 k-point 45 :  -0.1875 0.0000 0.0000  plane waves:   12277
 k-point 46 :   0.3125 0.1875 0.0000  plane waves:   12288
 k-point 47 :   0.1250 0.3125 0.0000  plane waves:   12288
 k-point 48 :  -0.1875 0.1250 0.0000  plane waves:   12288
 k-point 49 :   0.1250-0.1875 0.0000  plane waves:   12288
 k-point 50 :  -0.1875-0.3125 0.0000  plane waves:   12288
 k-point 51 :  -0.3125-0.1250 0.0000  plane waves:   12288
 k-point 52 :   0.4375 0.1875 0.0000  plane waves:   12234
 k-point 53 :   0.2500 0.4375 0.0000  plane waves:   12234
 k-point 54 :  -0.1875 0.2500 0.0000  plane waves:   12234
 k-point 55 :   0.2500-0.1875 0.0000  plane waves:   12234
 k-point 56 :  -0.1875-0.4375 0.0000  plane waves:   12234
 k-point 57 :  -0.4375-0.2500 0.0000  plane waves:   12234
 k-point 58 :  -0.4375 0.1875 0.0000  plane waves:   12216
 k-point 59 :   0.3750-0.4375 0.0000  plane waves:   12216
 k-point 60 :  -0.1875 0.3750 0.0000  plane waves:   12216
 k-point 61 :   0.3750-0.1875 0.0000  plane waves:   12216
 k-point 62 :  -0.1875 0.4375 0.0000  plane waves:   12216
 k-point 63 :   0.4375-0.3750 0.0000  plane waves:   12216
 k-point 64 :  -0.3125 0.1875 0.0000  plane waves:   12215
 k-point 65 :   0.5000-0.3125 0.0000  plane waves:   12215
 k-point 66 :  -0.1875 0.5000 0.0000  plane waves:   12215
 k-point 67 :   0.5000-0.1875 0.0000  plane waves:   12215
 k-point 68 :  -0.1875 0.3125 0.0000  plane waves:   12215
 k-point 69 :   0.3125 0.5000 0.0000  plane waves:   12215
 k-point 70 :  -0.1875 0.1875 0.0000  plane waves:   12289
 k-point 71 :  -0.3750-0.1875 0.0000  plane waves:   12289
 k-point 72 :  -0.1875-0.3750 0.0000  plane waves:   12289
 k-point 73 :   0.3125 0.3125 0.0000  plane waves:   12275
 k-point 74 :   0.0000 0.3125 0.0000  plane waves:   12275
 k-point 75 :  -0.3125 0.0000 0.0000  plane waves:   12275
 k-point 76 :   0.4375 0.3125 0.0000  plane waves:   12239
 k-point 77 :   0.1250 0.4375 0.0000  plane waves:   12239
 k-point 78 :  -0.3125 0.1250 0.0000  plane waves:   12239
 k-point 79 :   0.1250-0.3125 0.0000  plane waves:   12239
 k-point 80 :  -0.3125-0.4375 0.0000  plane waves:   12239
 k-point 81 :  -0.4375-0.1250 0.0000  plane waves:   12239
 k-point 82 :  -0.4375 0.3125 0.0000  plane waves:   12235
 k-point 83 :   0.2500-0.4375 0.0000  plane waves:   12235
 k-point 84 :  -0.3125 0.2500 0.0000  plane waves:   12235
 k-point 85 :   0.2500-0.3125 0.0000  plane waves:   12235
 k-point 86 :  -0.3125 0.4375 0.0000  plane waves:   12235
 k-point 87 :   0.4375-0.2500 0.0000  plane waves:   12235
 k-point 88 :  -0.3125 0.3125 0.0000  plane waves:   12232
 k-point 89 :   0.3750-0.3125 0.0000  plane waves:   12232
 k-point 90 :  -0.3125 0.3750 0.0000  plane waves:   12232
 k-point 91 :   0.4375 0.4375 0.0000  plane waves:   12200
 k-point 92 :   0.0000 0.4375 0.0000  plane waves:   12200
 k-point 93 :  -0.4375-0.0000 0.0000  plane waves:   12200
 k-point 94 :  -0.4375 0.4375 0.0000  plane waves:   12214
 k-point 95 :   0.1250-0.4375 0.0000  plane waves:   12214
 k-point 96 :  -0.4375 0.1250 0.0000  plane waves:   12214

 maximum and minimum number of plane-waves per node :      3101     2992

 maximum number of plane-waves:     12329
 maximum index in each direction: 
   IXMAX=    8   IYMAX=    8   IZMAX=   46
   IXMIN=   -8   IYMIN=   -8   IZMIN=  -46


 real space projection operators:
  total allocation   :       5086.44 KBytes
  max/ min on nodes  :       1272.40       1271.09


 parallel 3D FFT for wavefunctions:
    minimum data exchange during FFTs selected (reduces bandwidth)
 parallel 3D FFT for charge:
    minimum data exchange during FFTs selected (reduces bandwidth)


 total amount of memory used by VASP MPI-rank0   164309. kBytes
=======================================================================

   base      :      30000. kBytes
   nonlr-proj:       2356. kBytes
   fftplans  :       2967. kBytes
   grid      :       6321. kBytes
   one-center:         93. kBytes
   wavefun   :     122572. kBytes
 
     INWAV:  cpu time    0.0000: real time    0.0000
 Broyden mixing: mesh for mixing (old mesh)
   NGX = 17   NGY = 17   NGZ = 93
  (NGX  = 56   NGY  = 56   NGZ  =288)
  gives a total of  26877 points

 initial charge density was supplied:
 charge density of overlapping atoms calculated
 number of electron     168.0000000 magnetization 
 keeping initial charge density in first step


--------------------------------------------------------------------------------------------------------


 Maximum index for non-local projection operator          540
 Maximum index for augmentation-charges          719 (set IRDMAX)


--------------------------------------------------------------------------------------------------------


 First call to EWALD:  gamma=   0.189
 Maximum number of real-space cells 5x 5x 1
 Maximum number of reciprocal cells 2x 2x 8

    FEWALD:  cpu time    0.0013: real time    0.0013


--------------------------------------- Iteration      1(   1)  ---------------------------------------


    POTLOK:  cpu time    0.0260: real time    0.0319
    SETDIJ:  cpu time    0.0035: real time    0.0035
     EDDAV:  cpu time   14.3997: real time   14.4008
       DOS:  cpu time    0.0075: real time    0.0075
    --------------------------------------------
      LOOP:  cpu time   14.4367: real time   14.4438

 eigenvalue-minimisations  : 19264
 total energy-change (2. order) : 0.1022305E+04  (-0.5823672E+04)
 number of electron     168.0000000 magnetization 
 augmentation part      168.0000000 magnetization 

 Free energy of the ion-electron system (eV)
  ---------------------------------------------------
  alpha Z        PSCENC =       324.87461712
  Ewald energy   TEWEN  =     99490.09086467
  -Hartree energ DENC   =   -111778.36258925
  -exchange      EXHF   =         0.00000000
  -V(xc)+E(xc)   XCENC  =        68.67169625
  PAW double counting   =     11288.27476651   -10829.50941267
  entropy T*S    EENTRO =         0.00615308
  eigenvalues    EBANDS =       567.62123797
  atomic energy  EATOM  =     11890.63736546
  Solvation  Ediel_sol  =         0.00000000
  ---------------------------------------------------
  free energy    TOTEN  =      1022.30469915 eV

  energy without entropy =     1022.29854607  energy(sigma->0) =     1022.30264812


--------------------------------------------------------------------------------------------------------




--------------------------------------- Iteration      1(   2)  ---------------------------------------


     EDDAV:  cpu time   17.0743: real time   17.0751
       DOS:  cpu time    0.0082: real time    0.0082
    --------------------------------------------
      LOOP:  cpu time   17.0825: real time   17.0832

 eigenvalue-minimisations  : 23916
 total energy-change (2. order) :-0.1051662E+04  (-0.9769512E+03)
 number of electron     168.0000000 magnetization 
 augmentation part      168.0000000 magnetization 

 Free energy of the ion-electron system (eV)
  ---------------------------------------------------
  alpha Z        PSCENC =       324.87461712
  Ewald energy   TEWEN  =     99490.09086467
  -Hartree energ DENC   =   -111778.36258925
  -exchange      EXHF   =         0.00000000
  -V(xc)+E(xc)   XCENC  =        68.67169625
  PAW double counting   =     11288.27476651   -10829.50941267
  entropy T*S    EENTRO =         0.00425550
  eigenvalues    EBANDS =      -484.03858300
  atomic energy  EATOM  =     11890.63736546
  Solvation  Ediel_sol  =         0.00000000
  ---------------------------------------------------
  free energy    TOTEN  =       -29.35701941 eV

  energy without entropy =      -29.36127491  energy(sigma->0) =      -29.35843791


--------------------------------------------------------------------------------------------------------




--------------------------------------- Iteration      1(   3)  ---------------------------------------


     EDDAV:  cpu time   16.5004: real time   16.5037
       DOS:  cpu time    0.0086: real time    0.0086
    --------------------------------------------
      LOOP:  cpu time   16.5091: real time   16.5123

 eigenvalue-minimisations  : 22928
 total energy-change (2. order) :-0.9183318E+02  (-0.8493103E+02)
 number of electron     168.0000000 magnetization 
 augmentation part      168.0000000 magnetization 

 Free energy of the ion-electron system (eV)
  ---------------------------------------------------
  alpha Z        PSCENC =       324.87461712
  Ewald energy   TEWEN  =     99490.09086467
  -Hartree energ DENC   =   -111778.36258925
  -exchange      EXHF   =         0.00000000
  -V(xc)+E(xc)   XCENC  =        68.67169625
  PAW double counting   =     11288.27476651   -10829.50941267
  entropy T*S    EENTRO =        -0.01994868
  eigenvalues    EBANDS =      -575.84755719
  atomic energy  EATOM  =     11890.63736546
  Solvation  Ediel_sol  =         0.00000000
  ---------------------------------------------------
  free energy    TOTEN  =      -121.19019778 eV

  energy without entropy =     -121.17024910  energy(sigma->0) =     -121.18354822


--------------------------------------------------------------------------------------------------------




--------------------------------------- Iteration      1(   4)  ---------------------------------------


     EDDAV:  cpu time   18.0472: real time   18.0487
       DOS:  cpu time    0.0086: real time    0.0086
    --------------------------------------------
      LOOP:  cpu time   18.0558: real time   18.0573

 eigenvalue-minimisations  : 25760
 total energy-change (2. order) :-0.4469963E+01  (-0.4250327E+01)
 number of electron     168.0000000 magnetization 
 augmentation part      168.0000000 magnetization 

 Free energy of the ion-electron system (eV)
  ---------------------------------------------------
  alpha Z        PSCENC =       324.87461712
  Ewald energy   TEWEN  =     99490.09086467
  -Hartree energ DENC   =   -111778.36258925
  -exchange      EXHF   =         0.00000000
  -V(xc)+E(xc)   XCENC  =        68.67169625
  PAW double counting   =     11288.27476651   -10829.50941267
  entropy T*S    EENTRO =        -0.02658805
  eigenvalues    EBANDS =      -580.31088043
  atomic energy  EATOM  =     11890.63736546
  Solvation  Ediel_sol  =         0.00000000
  ---------------------------------------------------
  free energy    TOTEN  =      -125.66016038 eV

  energy without entropy =     -125.63357233  energy(sigma->0) =     -125.65129770


--------------------------------------------------------------------------------------------------------




--------------------------------------- Iteration      1(   5)  ---------------------------------------


     EDDAV:  cpu time   18.6959: real time   18.7035
       DOS:  cpu time    0.0089: real time    0.0089
    CHARGE:  cpu time    0.7136: real time    0.7137
    MIXING:  cpu time    0.0011: real time    0.0011
    --------------------------------------------
      LOOP:  cpu time   19.4195: real time   19.4272

 eigenvalue-minimisations  : 26824
 total energy-change (2. order) :-0.1431379E+00  (-0.1419034E+00)
 number of electron     168.0000082 magnetization 
 augmentation part       47.1105727 magnetization 

 Broyden mixing:
  rms(total) = 0.42595E+01    rms(broyden)= 0.42594E+01
  rms(prec ) = 0.42999E+01
  weight for this iteration     100.00

 Free energy of the ion-electron system (eV)
  ---------------------------------------------------
  alpha Z        PSCENC =       324.87461712
  Ewald energy   TEWEN  =     99490.09086467
  -Hartree energ DENC   =   -111778.36258925
  -exchange      EXHF   =         0.00000000
  -V(xc)+E(xc)   XCENC  =        68.67169625
  PAW double counting   =     11288.27476651   -10829.50941267
  entropy T*S    EENTRO =        -0.02664283
  eigenvalues    EBANDS =      -580.45396350
  atomic energy  EATOM  =     11890.63736546
  Solvation  Ediel_sol  =         0.00000000
  ---------------------------------------------------
  free energy    TOTEN  =      -125.80329824 eV

  energy without entropy =     -125.77665541  energy(sigma->0) =     -125.79441730


--------------------------------------------------------------------------------------------------------




--------------------------------------- Iteration      1(   6)  ---------------------------------------


    POTLOK:  cpu time    0.0235: real time    0.0237
    SETDIJ:  cpu time    0.0035: real time    0.0035
     EDDAV:  cpu time   15.8931: real time   15.8945
       DOS:  cpu time    0.0096: real time    0.0096
    CHARGE:  cpu time    0.7260: real time    0.7260
    MIXING:  cpu time    0.0011: real time    0.0011
    --------------------------------------------
      LOOP:  cpu time   16.6568: real time   16.6584

 eigenvalue-minimisations  : 21864
 total energy-change (2. order) : 0.6930119E+01  (-0.3032825E+01)
 number of electron     168.0000079 magnetization 
 augmentation part       49.7482322 magnetization 

 Broyden mixing:
  rms(total) = 0.31492E+01    rms(broyden)= 0.31491E+01
  rms(prec ) = 0.32471E+01
  weight for this iteration     100.00

 eigenvalues of (default mixing * dielectric matrix)
  average eigenvalue GAMMA=   1.2434
  1.2434

 Free energy of the ion-electron system (eV)
  ---------------------------------------------------
  alpha Z        PSCENC =       324.87461712
  Ewald energy   TEWEN  =     99490.09086467
  -Hartree energ DENC   =   -111590.35236753
  -exchange      EXHF   =         0.00000000
  -V(xc)+E(xc)   XCENC  =        65.62892780
  PAW double counting   =     12550.57526931   -12115.37245929
  entropy T*S    EENTRO =        -0.02818288
  eigenvalues    EBANDS =      -734.92721395
  atomic energy  EATOM  =     11890.63736546
  Solvation  Ediel_sol  =         0.00000000
  ---------------------------------------------------
  free energy    TOTEN  =      -118.87317929 eV

  energy without entropy =     -118.84499641  energy(sigma->0) =     -118.86378500


--------------------------------------------------------------------------------------------------------




--------------------------------------- Iteration      1(   7)  ---------------------------------------


    POTLOK:  cpu time    0.0231: real time    0.0241
    SETDIJ:  cpu time    0.0034: real time    0.0034
     EDDAV:  cpu time   16.9029: real time   16.9038
       DOS:  cpu time    0.0096: real time    0.0096
    CHARGE:  cpu time    0.7090: real time    0.7091
    MIXING:  cpu time    0.0011: real time    0.0011
    --------------------------------------------
      LOOP:  cpu time   17.6491: real time   17.6512

 eigenvalue-minimisations  : 23636
 total energy-change (2. order) :-0.2348620E+02  (-0.1022249E+02)
 number of electron     168.0000089 magnetization 
 augmentation part       48.9754146 magnetization 

 Broyden mixing:
  rms(total) = 0.44088E+01    rms(broyden)= 0.44086E+01
  rms(prec ) = 0.49149E+01
  weight for this iteration     100.00

 eigenvalues of (default mixing * dielectric matrix)
  average eigenvalue GAMMA=   1.1397
  2.0161  0.2633

 Free energy of the ion-electron system (eV)
  ---------------------------------------------------
  alpha Z        PSCENC =       324.87461712
  Ewald energy   TEWEN  =     99490.09086467
  -Hartree energ DENC   =   -111755.83591594
  -exchange      EXHF   =         0.00000000
  -V(xc)+E(xc)   XCENC  =        65.16459843
  PAW double counting   =     13500.49671748   -13075.24633264
  entropy T*S    EENTRO =         0.00693482
  eigenvalues    EBANDS =      -582.54823157
  atomic energy  EATOM  =     11890.63736546
  Solvation  Ediel_sol  =         0.00000000
  ---------------------------------------------------
  free energy    TOTEN  =      -142.35938216 eV

  energy without entropy =     -142.36631698  energy(sigma->0) =     -142.36169377


--------------------------------------------------------------------------------------------------------




--------------------------------------- Iteration      1(   8)  ---------------------------------------


    POTLOK:  cpu time    0.0227: real time    0.0228
    SETDIJ:  cpu time    0.0035: real time    0.0035
     EDDAV:  cpu time   17.5992: real time   17.6001
       DOS:  cpu time    0.0100: real time    0.0100
    CHARGE:  cpu time    0.7502: real time    0.7502
    MIXING:  cpu time    0.0013: real time    0.0013
    --------------------------------------------
      LOOP:  cpu time   18.3869: real time   18.3879

 eigenvalue-minimisations  : 24820
 total energy-change (2. order) : 0.2153966E+02  (-0.4142812E+01)
 number of electron     168.0000099 magnetization 
 augmentation part       50.6359720 magnetization 

 Broyden mixing:
  rms(total) = 0.20268E+01    rms(broyden)= 0.20267E+01
  rms(prec ) = 0.22602E+01
  weight for this iteration     100.00

 eigenvalues of (default mixing * dielectric matrix)
  average eigenvalue GAMMA=   0.9397
  2.0677  0.3989  0.3526

 Free energy of the ion-electron system (eV)
  ---------------------------------------------------
  alpha Z        PSCENC =       324.87461712
  Ewald energy   TEWEN  =     99490.09086467
  -Hartree energ DENC   =   -111612.01903396
  -exchange      EXHF   =         0.00000000
  -V(xc)+E(xc)   XCENC  =        64.73078976
  PAW double counting   =     14432.87302986   -14018.53330118
  entropy T*S    EENTRO =        -0.02768005
  eigenvalues    EBANDS =      -693.44637126
  atomic energy  EATOM  =     11890.63736546
  Solvation  Ediel_sol  =         0.00000000
[...]
     21      -5.1847      2.00000
     22      -5.1121      2.00000
     23      -5.0418      2.00000
     24      -5.0079      2.00000
     25      -4.9784      2.00000
     26      -4.8842      2.00000
     27      -4.8407      2.00000
     28      -4.8094      2.00000
     29      -4.7862      2.00000
     30      -4.7782      2.00000
     31      -4.7431      2.00000
     32      -4.7140      2.00000
     33      -4.5056      2.00000
     34      -4.4231      2.00000
     35      -4.3611      2.00000
     36      -4.2837      2.00000
     37      -4.2534      2.00000
     38      -4.1536      2.00000
     39      -4.1187      2.00000
     40      -4.0100      2.00000
     41      -3.9352      2.00000
     42      -3.8520      2.00000
     43      -3.8012      2.00000
     44      -3.7798      2.00000
     45      -3.7254      2.00000
     46      -3.6385      2.00000
     47      -3.5310      2.00000
     48      -3.4437      2.00000
     49      -3.3960      2.00000
     50      -3.3679      2.00000
     51      -3.3340      2.00000
     52      -3.3004      2.00000
     53      -3.2816      2.00000
     54      -3.1835      2.00000
     55      -3.0678      2.00000
     56      -2.9637      2.00000
     57      -2.7988      2.00000
     58      -2.6862      2.00000
     59      -2.6415      2.00000
     60      -2.6013      2.00000
     61      -2.5803      2.00000
     62      -2.4962      2.00000
     63      -2.3972      2.00000
     64      -2.2911      2.00000
     65      -2.2281      2.00000
     66      -2.1937      2.00000
     67      -2.1022      2.00000
     68      -2.0259      2.00000
     69      -1.9168      2.00000
     70      -1.8508      2.00000
     71      -1.7987      2.00000
     72      -1.7475      2.00000
     73      -1.6879      2.00000
     74      -1.6179      2.00000
     75      -1.5721      2.00000
     76      -1.5049      2.00000
     77      -1.4071      2.00000
     78      -1.2993      2.00000
     79      -1.1367      2.00009
     80      -0.9730      2.00521
     81      -0.9588      2.00690
     82      -0.8632      2.03204
     83      -0.6898      2.02017
     84      -0.5944      1.64043
     85      -0.5543      1.35515
     86      -0.4814      0.75048
     87      -0.3445      0.00352
     88      -0.3119     -0.04960
     89      -0.1225     -0.01908
     90      -0.0886     -0.01089
     91       0.5037     -0.00000
     92       0.7966     -0.00000
     93       1.7405     -0.00000
     94       1.8431     -0.00000
     95       1.9127     -0.00000
     96       2.6449     -0.00000
     97       3.4478     -0.00000
     98       3.7104     -0.00000
     99       4.2405     -0.00000
    100       4.3206     -0.00000

 k-point    96 :      -0.4375    0.1250    0.0000
  band No.  band energies     occupation 
      1     -12.3366      2.00000
      2      -8.0210      2.00000
      3      -7.9870      2.00000
      4      -7.0351      2.00000
      5      -6.9556      2.00000
      6      -6.5484      2.00000
      7      -6.3007      2.00000
      8      -6.2205      2.00000
      9      -6.1548      2.00000
     10      -6.0648      2.00000
     11      -5.9777      2.00000
     12      -5.9128      2.00000
     13      -5.8635      2.00000
     14      -5.8496      2.00000
     15      -5.6785      2.00000
     16      -5.5291      2.00000
     17      -5.4346      2.00000
     18      -5.4184      2.00000
     19      -5.3868      2.00000
     20      -5.2561      2.00000
     21      -5.1843      2.00000
     22      -5.1187      2.00000
     23      -5.0421      2.00000
     24      -5.0076      2.00000
     25      -4.9496      2.00000
     26      -4.8803      2.00000
     27      -4.8432      2.00000
     28      -4.8138      2.00000
     29      -4.7915      2.00000
     30      -4.7599      2.00000
     31      -4.7536      2.00000
     32      -4.7327      2.00000
     33      -4.4727      2.00000
     34      -4.4213      2.00000
     35      -4.3645      2.00000
     36      -4.3120      2.00000
     37      -4.2570      2.00000
     38      -4.1687      2.00000
     39      -4.1271      2.00000
     40      -4.0237      2.00000
     41      -3.9205      2.00000
     42      -3.8448      2.00000
     43      -3.8264      2.00000
     44      -3.7904      2.00000
     45      -3.7409      2.00000
     46      -3.6314      2.00000
     47      -3.5295      2.00000
     48      -3.4178      2.00000
     49      -3.4049      2.00000
     50      -3.3733      2.00000
     51      -3.3332      2.00000
     52      -3.3030      2.00000
     53      -3.2694      2.00000
     54      -3.1546      2.00000
     55      -3.0730      2.00000
     56      -3.0001      2.00000
     57      -2.8240      2.00000
     58      -2.6852      2.00000
     59      -2.6378      2.00000
     60      -2.5793      2.00000
     61      -2.5610      2.00000
     62      -2.5032      2.00000
     63      -2.3879      2.00000
     64      -2.2948      2.00000
     65      -2.2324      2.00000
     66      -2.1967      2.00000
     67      -2.0886      2.00000
     68      -2.0463      2.00000
     69      -1.9251      2.00000
     70      -1.8840      2.00000
     71      -1.7940      2.00000
     72      -1.7342      2.00000
     73      -1.6685      2.00000
     74      -1.6080      2.00000
     75      -1.5722      2.00000
     76      -1.4963      2.00000
     77      -1.4016      2.00000
     78      -1.2644      2.00000
     79      -1.1532      2.00006
     80      -1.0572      2.00078
     81      -0.9855      2.00404
     82      -0.7890      2.06436
     83      -0.6750      1.98943
     84      -0.5987      1.66728
     85      -0.5662      1.44588
     86      -0.4678      0.64175
     87      -0.3803      0.11362
     88      -0.2790     -0.06956
     89      -0.1297     -0.02130
     90      -0.0806     -0.00944
     91       0.5026     -0.00000
     92       0.7982     -0.00000
     93       1.7383     -0.00000
     94       1.8103     -0.00000
     95       1.9589     -0.00000
     96       2.6501     -0.00000
     97       3.4237     -0.00000
     98       3.7136     -0.00000
     99       4.2196     -0.00000
    100       4.3448     -0.00000


--------------------------------------------------------------------------------------------------------


 soft charge-density along one line, spin component           1
         0         1         2         3         4         5         6         7         8         9
 total charge-density along one line
 
 pseudopotential strength for first ion, spin component:           1
 -7.963   0.000   0.000  -0.007   0.000  -8.111   0.000   0.000
  0.000  -7.889  -0.000   0.000  -0.004   0.000  -8.039  -0.000
  0.000  -0.000  -7.880   0.000  -0.000   0.000  -0.000  -8.030
 -0.007   0.000   0.000  -7.889   0.000  -0.007   0.000   0.000
  0.000  -0.004  -0.000   0.000  -7.963   0.000  -0.004  -0.000
 -8.111   0.000   0.000  -0.007   0.000  -8.243   0.000   0.000
  0.000  -8.039  -0.000   0.000  -0.004   0.000  -8.172  -0.000
  0.000  -0.000  -8.030   0.000  -0.000   0.000  -0.000  -8.164
 -0.007   0.000   0.000  -8.039   0.000  -0.007   0.000   0.000
  0.000  -0.004  -0.000   0.000  -8.111   0.000  -0.004  -0.000
  0.000   0.001  -0.024  -0.000   0.000   0.000   0.001  -0.023
  0.000   0.001  -0.034  -0.000   0.000   0.000   0.001  -0.034
  0.000   0.003  -0.000   0.000  -0.001   0.000   0.002  -0.000
  0.000   0.000   0.005   0.000   0.000   0.000   0.000   0.005
 -0.000   0.000  -0.000   0.003   0.000  -0.000   0.000  -0.000
  0.000   0.002  -0.000   0.000  -0.001   0.000   0.001  -0.000
  0.000   0.001   0.005   0.000   0.000   0.000   0.001   0.004
 -0.000   0.000  -0.000   0.002   0.000  -0.000   0.000  -0.000
 total augmentation occupancy for first ion, spin component:           1
  4.851   0.010   0.027  -0.034   0.003  -3.022  -0.009  -0.021  -0.056  -0.003  -0.005   0.003  -0.001  -0.004   0.049   0.000
  0.010   4.922   0.073   0.040  -0.008  -0.009  -2.647  -0.063  -0.032  -0.069  -0.020   0.010   0.212  -0.009  -0.004  -0.008
  0.027   0.073   5.808   0.026  -0.006  -0.021  -0.063  -3.589  -0.020   0.004   0.771  -0.028  -0.002   0.323  -0.003   0.000
 -0.034   0.040   0.026   4.909  -0.001  -0.054  -0.032  -0.020  -2.636   0.002  -0.001   0.004  -0.004  -0.004   0.214   0.000
  0.003  -0.008  -0.006  -0.001   4.846  -0.003  -0.071   0.004   0.001  -3.018  -0.002  -0.003   0.050  -0.000   0.000  -0.002
 -3.022  -0.009  -0.021  -0.054  -0.003   3.056   0.008   0.017   0.123   0.003   0.004  -0.003   0.001   0.004  -0.046  -0.000
 -0.009  -2.647  -0.063  -0.032  -0.071   0.008   2.333   0.055   0.026   0.130   0.016  -0.008  -0.198   0.007   0.004   0.009
 -0.021  -0.063  -3.589  -0.020   0.004   0.017   0.055   3.316   0.016  -0.003  -0.711   0.045   0.002  -0.337   0.002  -0.000
 -0.056  -0.032  -0.020  -2.636   0.001   0.123   0.026   0.016   2.325  -0.001   0.002  -0.004   0.003   0.004  -0.200  -0.000
 -0.003  -0.069   0.004   0.002  -3.018   0.003   0.130  -0.003  -0.001   3.052   0.001   0.002  -0.047  -0.000  -0.000   0.002
 -0.005  -0.020   0.771  -0.001  -0.002   0.004   0.016  -0.711   0.002   0.001   2.572  -0.596  -0.000  -0.168   0.001   0.000
  0.003   0.010  -0.028   0.004  -0.003  -0.003  -0.008   0.045  -0.004   0.002  -0.596   0.179  -0.001   0.070  -0.001   0.000
 -0.001   0.212  -0.002  -0.004   0.050   0.001  -0.198   0.002   0.003  -0.047  -0.000  -0.001   0.237   0.000  -0.000  -0.007
 -0.004  -0.009   0.323  -0.004  -0.000   0.004   0.007  -0.337   0.004  -0.000  -0.168   0.070   0.000   0.134  -0.000  -0.000
  0.049  -0.004  -0.003   0.214   0.000  -0.046   0.004   0.002  -0.200  -0.000   0.001  -0.001  -0.000  -0.000   0.237  -0.000
  0.000  -0.008   0.000   0.000  -0.002  -0.000   0.009  -0.000  -0.000   0.002   0.000   0.000  -0.007  -0.000  -0.000   0.000
  0.000   0.001  -0.003   0.000  -0.000  -0.000  -0.001   0.008  -0.000   0.000   0.009  -0.003  -0.000  -0.005  -0.000   0.000
 -0.001   0.000   0.000  -0.008   0.000   0.002  -0.000  -0.000   0.009  -0.000  -0.000   0.000  -0.000  -0.000  -0.007   0.000


------------------------ aborting loop because EDIFF is reached ----------------------------------------



 DIPCOR: dipole corrections for dipol
 direction  3 min pos    20,
 dipolmoment           0.000000      0.000000     -0.109436 electrons x Angstroem
 Tr[quadrupol]      -943.031248

 energy correction for charged system         0.000000 eV
 dipol+quadrupol energy correction            0.001315 eV
 added-field ion interaction          0.000000 eV  (added to PSCEN)

 
  *************** adding dipol energy to TOTEN NOW **************** 
    CHARGE:  cpu time    0.7104: real time    0.7104
    FORLOC:  cpu time    0.0071: real time    0.0071
    FORNL :  cpu time    3.2581: real time    3.2583
    STRESS:  cpu time    9.8236: real time    9.8243
    FORCOR:  cpu time    0.0292: real time    0.0292
    FORHAR:  cpu time    0.0121: real time    0.0121
    MIXING:  cpu time    0.0041: real time    0.0041
    OFIELD:  cpu time    0.0000: real time    0.0000

  FORCE on cell =-STRESS in cart. coord.  units (eV):
  Direction    XX          YY          ZZ          XY          YZ          ZX
  --------------------------------------------------------------------------------------
  Alpha Z   324.87462   324.87462   324.87462
  Ewald  108375.41689108375.89128************    -2.95794     3.29668    -3.05846
  Hartree110836.29310110836.79137************    -0.52542     1.76508    -0.51809
  E(xc)    -737.11132  -737.10474  -741.55861    -0.01633    -0.00286    -0.02202
  Local  ************************224353.95083     2.81795    -5.02662     2.67310
  n-local    43.53452    43.47226    26.47256    -0.17735    -0.00152    -0.24782
  augment   834.68058   834.67253   862.18817     0.23997     0.04415     0.37359
  Kinetic  2383.83362  2383.75067  2454.33526     0.56651     0.00378     0.71971
  Fock        0.00000     0.00000     0.00000     0.00000     0.00000     0.00000
  -------------------------------------------------------------------------------------
  Total     -11.78931   -11.86791    -0.22803    -0.05260     0.07868    -0.07999
  in kB     -22.91946   -23.07226    -0.44330    -0.10227     0.15297    -0.15551
  external pressure =      -15.48 kB  Pullay stress =        0.00 kB


 VOLUME and BASIS-vectors are now :
 -----------------------------------------------------------------------------
  energy-cutoff  :      350.00
  volume of cell :      824.13
      direct lattice vectors                 reciprocal lattice vectors
     5.557859300  0.000000000  0.000000000     0.179925390 -0.103879972  0.000000000
     2.778929650  4.813247345  0.000000000     0.000000000  0.207759944  0.000000000
     0.000000000  0.000000000 30.806959674     0.000000000  0.000000000  0.032460198

  length of vectors
     5.557859300  5.557859300 30.806959674     0.207759944  0.207759944  0.032460198


 FORCES acting on ions
    electron-ion (+dipol)            ewald-force                    non-local-force                 convergence-correction
 -----------------------------------------------------------------------------------------------
   0.176E+01 0.412E+01 -.283E+04   -.178E+01 -.421E+01 0.283E+04   0.405E-02 0.980E-01 0.945E+00   -.141E-03 0.107E-03 -.302E-02
   -.253E-01 0.633E-01 -.123E+04   0.455E-01 -.636E-01 0.123E+04   -.141E-01 0.301E-01 0.235E-01   -.329E-05 0.167E-04 -.328E-02
   -.224E+02 -.277E+02 -.292E+03   0.248E+02 0.306E+02 0.288E+03   -.240E+01 -.296E+01 0.373E+01   -.166E-03 -.207E-03 -.646E-03
   0.214E+02 -.302E+02 -.320E+03   -.238E+02 0.335E+02 0.324E+03   0.237E+01 -.335E+01 -.356E+01   0.157E-03 -.222E-03 -.866E-03
   0.346E+02 0.288E+02 -.298E+03   -.383E+02 -.319E+02 0.296E+03   0.377E+01 0.315E+01 0.226E+01   0.253E-03 0.210E-03 -.727E-03
   -.338E+02 0.282E+02 -.316E+03   0.375E+02 -.313E+02 0.318E+03   -.375E+01 0.312E+01 -.241E+01   -.245E-03 0.205E-03 -.853E-03
   -.165E+00 -.217E+00 0.265E+04   0.146E+00 0.238E+00 -.265E+04   0.188E-01 0.218E-01 -.133E+00   -.459E-04 -.107E-03 0.941E-02
   0.131E+01 -.154E+01 -.261E+04   -.127E+01 0.157E+01 0.261E+04   -.295E-01 -.393E-01 0.101E+01   -.139E-04 -.173E-03 -.264E-02
   -.129E+01 -.319E+01 -.261E+04   0.129E+01 0.324E+01 0.261E+04   -.165E-01 -.543E-01 0.954E+00   0.188E-04 -.301E-04 -.283E-02
   -.887E+00 0.131E+01 -.261E+04   0.937E+00 -.137E+01 0.261E+04   -.490E-01 0.798E-01 0.988E+00   0.117E-03 0.116E-03 -.258E-02
   -.576E+01 0.316E+01 -.723E+03   0.591E+01 -.325E+01 0.722E+03   0.103E-01 0.447E-02 0.368E+00   -.493E-03 -.157E-03 0.128E-01
   -.110E+00 0.386E-01 0.294E+04   0.901E-01 -.667E-01 -.294E+04   0.233E-01 0.478E-01 -.682E+00   0.549E-04 -.343E-03 0.100E-01
   0.108E+00 -.642E+01 -.723E+03   -.100E+00 0.657E+01 0.722E+03   -.113E-01 0.109E-01 0.463E+00   0.749E-04 -.897E-04 0.132E-01
   0.306E-01 -.530E+01 0.113E+04   -.377E-01 0.551E+01 -.113E+04   0.234E-02 -.450E-01 -.282E+00   0.145E-03 -.179E-02 0.246E-01
   -.746E-01 0.477E+00 0.113E+04   0.673E-01 -.469E+00 -.113E+04   0.482E-02 -.924E-02 -.357E+00   -.147E-03 0.794E-04 0.231E-01
   0.502E+01 0.242E+01 0.114E+04   -.519E+01 -.252E+01 -.114E+04   0.317E-01 0.202E-01 -.315E+00   0.162E-02 0.770E-03 0.247E-01
   -.511E+01 0.248E+01 0.114E+04   0.527E+01 -.259E+01 -.114E+04   -.209E-01 0.224E-01 -.320E+00   -.163E-02 0.943E-03 0.246E-01
   0.653E-01 0.144E+00 0.294E+04   -.139E+00 -.127E+00 -.294E+04   0.678E-01 -.540E-01 -.726E+00   -.204E-03 0.256E-03 0.102E-01
   -.355E+00 0.949E-01 0.294E+04   0.382E+00 -.842E-01 -.294E+04   -.201E-01 -.527E-01 -.717E+00   0.203E-03 0.193E-03 0.103E-01
   -.240E-01 0.175E+00 -.730E+03   0.263E-01 -.168E+00 0.730E+03   -.187E-02 -.100E-01 0.250E+00   -.737E-04 0.480E-03 0.129E-01
   0.578E+01 0.307E+01 -.723E+03   -.590E+01 -.315E+01 0.722E+03   -.255E-01 0.737E-02 0.380E+00   0.495E-03 -.243E-03 0.129E-01
 -----------------------------------------------------------------------------------------------
   0.306E-01 -.487E-01 -.206E+01   -.524E-13 -.266E-13 0.114E-12   -.345E-01 0.443E-01 0.186E+01   -.247E-04 0.165E-04 0.171E+00
 
 
 POSITION                                       TOTAL-FORCE (eV/Angst)
 -----------------------------------------------------------------------------------
      2.81511      4.80881     18.92866        -0.011436      0.010564      0.974028
      0.12557      0.21666     22.19480         0.006218      0.029980      0.059719
      0.61870      0.82474     21.41634        -0.018193     -0.022571      0.093215
      5.20513      0.89180     22.91801         0.003874     -0.014538      0.070564
      7.69586      4.38961     21.73115         0.013907      0.013018      0.043960
      3.65965      4.40040     22.68495        -0.001889     -0.001470      0.064303
      2.78297      0.00023     11.99664        -0.000172      0.043364      1.107771
      4.20331      2.40277     18.93632         0.017725     -0.008464     -0.140777
      1.42654      2.40297     18.93748        -0.019428     -0.007182     -0.136484
      5.59459      4.80926     18.93783         0.001500      0.017263     -0.131914
      4.19399      4.00892     16.61332         0.151911     -0.082774     -0.167626
      0.00425      0.00095     11.99510         0.003819      0.019484     -0.107421
      5.58349      1.60254     16.61271        -0.003267      0.162731     -0.366326
      5.57229      3.20873     14.32294        -0.004450      0.162877     -0.555262
      2.79331      3.20817     14.31893        -0.002462     -0.000925      0.059144
      4.18266      0.80188     14.31870        -0.142979     -0.080194     -0.275484
      1.40378      0.80179     14.31958         0.145927     -0.083663     -0.283682
      4.17329      2.40793     11.99643        -0.005439     -0.036373     -0.121483
      1.39298      2.40773     11.99679         0.007411     -0.041574     -0.122049
      2.80468      1.60176     16.61639         0.000577     -0.002271      0.093094
      6.97305      4.00897     16.61301        -0.143156     -0.077279     -0.157291
 -----------------------------------------------------------------------------------
    total drift:                               -0.003871     -0.004358     -0.020432


--------------------------------------------------------------------------------------------------------



  FREE ENERGIE OF THE ION-ELECTRON SYSTEM (eV)
  ---------------------------------------------------
  free  energy   TOTEN  =      -115.94300351 eV

  energy  without entropy=     -115.90291851  energy(sigma->0) =     -115.92964184
 


--------------------------------------------------------------------------------------------------------


    POTLOK:  cpu time    0.0264: real time    0.0264


--------------------------------------------------------------------------------------------------------


     LOOP+:  cpu time  570.2796: real time  570.4108
    4ORBIT:  cpu time    0.0000: real time    0.0000

 total amount of memory used by VASP MPI-rank0   164309. kBytes
=======================================================================

   base      :      30000. kBytes
   nonlr-proj:       2356. kBytes
   fftplans  :       2967. kBytes
   grid      :       6321. kBytes
   one-center:         93. kBytes
   wavefun   :     122572. kBytes
 
  
  
 General timing and accounting informations for this job:
 ========================================================
  
                  Total CPU time used (sec):      577.808
                            User time (sec):      574.218
                          System time (sec):        3.591
                         Elapsed time (sec):      578.123
  
                   Maximum memory used (kb):      204752.
                   Average memory used (kb):           0.
  
                          Minor page faults:        83534
                          Major page faults:            0
                 Voluntary context switches:          956
