       N       E                     dE             d eps       ncg     rms          rms(c)
DAV:   1     0.109635643404E+04    0.10964E+04   -0.75165E+04 12576   0.106E+03
DAV:   2    -0.415602778656E+02   -0.11379E+04   -0.10669E+04 14312   0.268E+02
DAV:   3    -0.102895597707E+03   -0.61335E+02   -0.54707E+02 14416   0.569E+01
DAV:   4    -0.104824796518E+03   -0.19292E+01   -0.19016E+01 14576   0.106E+01
DAV:   5    -0.104887369177E+03   -0.62573E-01   -0.62529E-01 15488   0.189E+00    0.288E+01
DAV:   6    -0.106559983184E+03   -0.16726E+01   -0.32242E+01 13200   0.255E+01    0.281E+01
DAV:   7    -0.139127570514E+03   -0.32568E+02   -0.58950E+01 16488   0.783E+01    0.431E+01
DAV:   8    -0.125382337382E+03    0.13745E+02   -0.60656E+01 15920   0.419E+01    0.378E+01
DAV:   9    -0.104367852075E+03    0.21014E+02   -0.32428E+01 14648   0.310E+01    0.206E+01
DAV:  10    -0.104261793214E+03    0.10606E+00   -0.25985E+01 13520   0.250E+01    0.189E+01
DAV:  11    -0.998392565677E+02    0.44225E+01   -0.69816E+00 13272   0.183E+01    0.595E+00
DAV:  12    -0.100024381030E+03   -0.18512E+00   -0.31652E+00 13272   0.103E+01    0.716E+00
DAV:  13    -0.996375022913E+02    0.38688E+00   -0.21092E+00 13208   0.799E+00    0.358E+00
DAV:  14    -0.997812452029E+02   -0.14374E+00   -0.10817E+00 13464   0.540E+00    0.428E+00
DAV:  15    -0.996729705728E+02    0.10827E+00   -0.41989E-01 13144   0.409E+00    0.404E+00
DAV:  16    -0.995733233650E+02    0.99647E-01   -0.22058E-01 13096   0.194E+00    0.121E+00
DAV:  17    -0.995650468419E+02    0.82765E-02   -0.35829E-02 13328   0.104E+00    0.764E-01
DAV:  18    -0.995627448398E+02    0.23020E-02   -0.15858E-02 13520   0.669E-01    0.734E-01
DAV:  19    -0.995595288029E+02    0.32160E-02   -0.82041E-03 13264   0.430E-01    0.283E-01
DAV:  20    -0.995594471132E+02    0.81690E-04   -0.62635E-03 13664   0.348E-01    0.305E-01
DAV:  21    -0.995588509923E+02    0.59612E-03   -0.12061E-03 13304   0.177E-01    0.193E-01
DAV:  22    -0.995584265184E+02    0.42447E-03   -0.10591E-03 13712   0.157E-01    0.631E-02
DAV:  23    -0.995582781334E+02    0.14839E-03   -0.26293E-04 13928   0.716E-02    0.762E-02
DAV:  24    -0.995582336854E+02    0.44448E-04   -0.18991E-04 12912   0.722E-02    0.416E-02
DAV:  25    -0.995583404051E+02   -0.10672E-03   -0.14444E-04 12088   0.636E-02    0.532E-02
DAV:  26    -0.995587414806E+02   -0.40108E-03   -0.14372E-04 12016   0.506E-02    0.279E-02
DAV:  27    -0.995589504299E+02   -0.20895E-03   -0.34088E-05  9272   0.312E-02    0.222E-02
DAV:  28    -0.995592711852E+02   -0.32076E-03   -0.29604E-05  9576   0.252E-02    0.151E-02
DAV:  29    -0.995594693974E+02   -0.19821E-03   -0.11491E-05  8464   0.145E-02    0.115E-02
DAV:  30    -0.995596112400E+02   -0.14184E-03   -0.84753E-06  8152   0.117E-02    0.762E-03
DAV:  31    -0.995597051351E+02   -0.93895E-04   -0.44212E-06  7896   0.851E-03    0.440E-03
DAV:  32    -0.995597647307E+02   -0.59596E-04   -0.22085E-06  7624   0.509E-03    0.449E-03
DAV:  33    -0.995598005491E+02   -0.35818E-04   -0.14907E-06  7696   0.439E-03    0.208E-03
DAV:  34    -0.995598300747E+02   -0.29526E-04   -0.19884E-06  7576   0.395E-03    0.380E-03
DAV:  35    -0.995598399853E+02   -0.99106E-05   -0.67749E-07  7536   0.216E-03
   1 F= -.99559840E+02 E0= -.99435101E+02  d E =-.374216E+00
