 vasp.5.4.4.18Apr17-6-g9f103f2a35 (build Apr 28 2017 10:53:45) complex          
  
 executed on             LinuxIFC date 2019.05.31  17:25:46
 running on   28 total cores
 distrk:  each k-point on   28 cores,    1 groups
 distr:  one band on NCORES_PER_BAND=   7 cores,    4 groups


--------------------------------------------------------------------------------------------------------


 INCAR:
 POTCAR:    PAW_PBE Ag 02Apr2005                  
 POTCAR:    PAW_PBE Pd 04Jan2005                  
 POTCAR:    PAW_PBE Rh 04Feb2005                  
 POTCAR:    PAW_PBE Ag 02Apr2005                  
   VRHFIN =Ag : s1 d10                                                          
   LEXCH  = PE                                                                  
   EATOM  =  1037.2675 eV,   76.2370 Ry                                         
                                                                                
   TITEL  = PAW_PBE Ag 02Apr2005                                                
   LULTRA =        F    use ultrasoft PP ?                                      
   IUNSCR =        1    unscreen: 0-lin 1-nonlin 2-no                           
   RPACOR =    2.000    partial core radius                                     
   POMASS =  107.868; ZVAL   =   11.000    mass and valenz                      
   RCORE  =    2.500    outmost cutoff radius                                   
   RWIGS  =    2.840; RWIGS  =    1.503    wigner-seitz radius (au A)           
   ENMAX  =  249.844; ENMIN  =  187.383 eV                                      
   ICORE  =        3    local potential                                         
   LCOR   =        T    correct aug charges                                     
   LPAW   =        T    paw PP                                                  
   EAUG   =  412.496                                                            
   DEXC   =    0.000                                                            
   RMAX   =    2.560    core radius for proj-oper                               
   RAUG   =    1.300    factor for augmentation sphere                          
   RDEP   =    2.576    radius for radial grids                                 
   RDEPT  =    2.072    core radius for aug-charge                              
                                                                                
   Atomic configuration                                                         
   12 entries                                                                   
     n  l   j            E        occ.                                          
     1  0  0.50    -25324.9161   2.0000                                         
     2  0  0.50     -3728.5341   2.0000                                         
     2  1  1.50     -3344.0404   6.0000                                         
     3  0  0.50      -683.5581   2.0000                                         
     3  1  1.50      -557.3225   6.0000                                         
     3  2  2.50      -358.3853  10.0000                                         
     4  0  0.50       -95.0341   2.0000                                         
     4  1  1.50       -58.5511   6.0000                                         
     4  2  2.50        -7.4440  10.0000                                         
     5  0  0.50        -4.4045   1.0000                                         
     5  1  0.50        -1.3606   0.0000                                         
     4  3  2.50        -1.3606   0.0000                                         
   Description                                                                  
     l       E           TYP  RCUT    TYP  RCUT                                 
     2     -7.4439781     23  2.400                                             
     2     -8.8045607     23  2.400                                             
     0     -4.4044681     23  2.400                                             
     0      1.9520038     23  2.400                                             
     1     -1.3605826     23  2.500                                             
     1     27.2116520     23  2.500                                             
     3     -4.0817478     23  2.400                                             
  local pseudopotential read in
  partial core-charges read in
  partial kinetic energy density read in
  atomic valenz-charges read in
  non local Contribution for L=           2  read in
    real space projection operators read in
  non local Contribution for L=           2  read in
    real space projection operators read in
  non local Contribution for L=           0  read in
    real space projection operators read in
  non local Contribution for L=           0  read in
    real space projection operators read in
  non local Contribution for L=           1  read in
    real space projection operators read in
  non local Contribution for L=           1  read in
    real space projection operators read in
    PAW grid and wavefunctions read in
 
   number of l-projection  operators is LMAX  =           6
   number of lm-projection operators is LMMAX =          18
 
 POTCAR:    PAW_PBE Pd 04Jan2005                  
   VRHFIN =Pd : s1 d9                                                           
   LEXCH  = PE                                                                  
   EATOM  =   809.7530 eV,   59.5152 Ry                                         
                                                                                
   TITEL  = PAW_PBE Pd 04Jan2005                                                
   LULTRA =        F    use ultrasoft PP ?                                      
   IUNSCR =        1    unscreen: 0-lin 1-nonlin 2-no                           
   RPACOR =    2.000    partial core radius                                     
   POMASS =  106.420; ZVAL   =   10.000    mass and valenz                      
   RCORE  =    2.600    outmost cutoff radius                                   
   RWIGS  =    2.710; RWIGS  =    1.434    wigner-seitz radius (au A)           
   ENMAX  =  250.925; ENMIN  =  188.194 eV                                      
   ICORE  =        3    local potential                                         
   LCOR   =        T    correct aug charges                                     
   LPAW   =        T    paw PP                                                  
   EAUG   =  416.230                                                            
   DEXC   =    0.000                                                            
   RMAX   =    2.653    core radius for proj-oper                               
   RAUG   =    1.300    factor for augmentation sphere                          
   RDEP   =    2.734    radius for radial grids                                 
   RDEPT  =    2.103    core radius for aug-charge                              
                                                                                
   Atomic configuration                                                         
   12 entries                                                                   
     n  l   j            E        occ.                                          
     1  0  0.50    -24164.6631   2.0000                                         
     2  0  0.50     -3530.9218   2.0000                                         
     2  1  1.50     -3165.6822   6.0000                                         
     3  0  0.50      -639.4577   2.0000                                         
     3  1  1.50      -519.4532   6.0000                                         
     3  2  2.50      -328.9757  10.0000                                         
     4  0  0.50       -88.7014   2.0000                                         
     4  1  1.50       -54.4540   6.0000                                         
     4  2  2.50        -6.6878   9.0000                                         
     5  0  0.50        -4.3543   1.0000                                         
     5  1  0.50        -1.3606   0.0000                                         
     4  3  2.50        -1.3606   0.0000                                         
   Description                                                                  
     l       E           TYP  RCUT    TYP  RCUT                                 
     2     -6.6878251     23  2.400                                             
     2     -8.0484077     23  2.400                                             
     0     -4.3542939     23  2.400                                             
     0      4.3406793     23  2.400                                             
     1     -4.0817478     23  2.600                                             
     1     15.8380318     23  2.600                                             
     3     -4.0817478     23  2.400                                             
  local pseudopotential read in
  partial core-charges read in
  partial kinetic energy density read in
  atomic valenz-charges read in
  non local Contribution for L=           2  read in
    real space projection operators read in
  non local Contribution for L=           2  read in
    real space projection operators read in
  non local Contribution for L=           0  read in
    real space projection operators read in
  non local Contribution for L=           0  read in
    real space projection operators read in
  non local Contribution for L=           1  read in
    real space projection operators read in
  non local Contribution for L=           1  read in
    real space projection operators read in
    PAW grid and wavefunctions read in
 
   number of l-projection  operators is LMAX  =           6
   number of lm-projection operators is LMMAX =          18
 
 POTCAR:    PAW_PBE Rh 04Feb2005                  
   VRHFIN =Rh: s1 d8                                                            
   LEXCH  = PE                                                                  
   EATOM  =   616.4198 eV,   45.3056 Ry                                         
                                                                                
   TITEL  = PAW_PBE Rh 04Feb2005                                                
   LULTRA =        F    use ultrasoft PP ?                                      
   IUNSCR =        1    unscreen: 0-lin 1-nonlin 2-no                           
   RPACOR =    2.170    partial core radius                                     
   POMASS =  102.906; ZVAL   =    9.000    mass and valenz                      
   RCORE  =    2.700    outmost cutoff radius                                   
   RWIGS  =    2.650; RWIGS  =    1.402    wigner-seitz radius (au A)           
   ENMAX  =  228.996; ENMIN  =  171.747 eV                                      
   ICORE  =        3    local potential                                         
   LCOR   =        T    correct aug charges                                     
   LPAW   =        T    paw PP                                                  
   EAUG   =  374.513                                                            
   DEXC   =    0.000                                                            
   RMAX   =    2.752    core radius for proj-oper                               
   RAUG   =    1.300    factor for augmentation sphere                          
   RDEP   =    2.703    radius for radial grids                                 
   RDEPT  =    2.174    core radius for aug-charge                              
                                                                                
   Atomic configuration                                                         
   12 entries                                                                   
     n  l   j            E        occ.                                          
     1  0  0.50    -23034.1986   2.0000                                         
     2  0  0.50     -3339.2387   2.0000                                         
     2  1  1.50     -2992.3290   6.0000                                         
     3  0  0.50      -596.7249   2.0000                                         
     3  1  1.50      -482.7183   6.0000                                         
     3  2  2.50      -300.5356  10.0000                                         
     4  0  0.50       -82.4809   2.0000                                         
     4  1  0.50       -50.4082   6.0000                                         
     4  2  2.50        -5.9408   8.0000                                         
     5  0  0.50        -4.2999   1.0000                                         
     5  1  1.50        -1.3606   0.0000                                         
     4  3  2.50        -1.3606   0.0000                                         
   Description                                                                  
     l       E           TYP  RCUT    TYP  RCUT                                 
     2     -5.9407964     23  2.500                                             
     2     -7.3013790     23  2.500                                             
     0     -4.2998518     23  2.400                                             
     0      6.0533315     23  2.400                                             
     1     -4.0817478     23  2.700                                             
     1     27.2116520     23  2.700                                             
     3     -4.0817478     23  2.500                                             
  local pseudopotential read in
  partial core-charges read in
  partial kinetic energy density read in
  atomic valenz-charges read in
  non local Contribution for L=           2  read in
    real space projection operators read in
  non local Contribution for L=           2  read in
    real space projection operators read in
  non local Contribution for L=           0  read in
    real space projection operators read in
  non local Contribution for L=           0  read in
    real space projection operators read in
  non local Contribution for L=           1  read in
    real space projection operators read in
  non local Contribution for L=           1  read in
    real space projection operators read in
    PAW grid and wavefunctions read in
 
   number of l-projection  operators is LMAX  =           6
   number of lm-projection operators is LMMAX =          18
 
 Optimization of the real space projectors (new method)

 maximal supplied QI-value         = 15.12
 optimisation between [QCUT,QGAM] = [  9.52, 19.05] = [ 25.40,101.61] Ry 
 Optimized for a Real-space Cutoff    1.43 Angstroem

   l    n(q)    QCUT    max X(q) W(low)/X(q) W(high)/X(q)  e(spline) 
   2      7     9.524    53.897    0.36E-03    0.74E-03    0.67E-07
   2      7     9.524    52.416    0.37E-03    0.76E-03    0.67E-07
   0      8     9.524   122.045    0.11E-03    0.28E-03    0.55E-07
   0      8     9.524    73.629    0.11E-03    0.27E-03    0.53E-07
   1      8     9.524    15.255    0.22E-03    0.34E-03    0.12E-06
   1      8     9.524     9.562    0.19E-03    0.28E-03    0.10E-06
 Optimization of the real space projectors (new method)

 maximal supplied QI-value         = 14.36
 optimisation between [QCUT,QGAM] = [  9.48, 19.10] = [ 25.16,102.17] Ry 
 Optimized for a Real-space Cutoff    1.52 Angstroem

   l    n(q)    QCUT    max X(q) W(low)/X(q) W(high)/X(q)  e(spline) 
   2      8     9.479    59.108    0.48E-04    0.31E-03    0.96E-07
   2      8     9.479    58.101    0.46E-04    0.32E-03    0.99E-07
   0      9     9.479   102.235    0.56E-04    0.11E-03    0.61E-07
   0      9     9.479    58.388    0.50E-04    0.10E-03    0.58E-07
   1      8     9.479    22.191    0.26E-03    0.25E-04    0.13E-06
   1      8     9.479    15.590    0.22E-03    0.23E-04    0.11E-06
 Optimization of the real space projectors (new method)

 maximal supplied QI-value         = 13.98
 optimisation between [QCUT,QGAM] = [  9.51, 19.16] = [ 25.32,102.78] Ry 
 Optimized for a Real-space Cutoff    1.57 Angstroem

   l    n(q)    QCUT    max X(q) W(low)/X(q) W(high)/X(q)  e(spline) 
   2      8     9.509    59.645    0.36E-03    0.26E-04    0.85E-07
   2      8     9.509    58.460    0.36E-03    0.26E-04    0.89E-07
   0      9     9.509    97.683    0.11E-03    0.15E-03    0.88E-07
   0      9     9.509    53.223    0.10E-03    0.14E-03    0.82E-07
   1      8     9.509    13.596    0.23E-03    0.93E-04    0.99E-07
   1      8     9.509     7.885    0.17E-03    0.72E-04    0.80E-07
  PAW_PBE Ag 02Apr2005                  :
 energy of atom  1       EATOM=-1037.2675
 kinetic energy error for atom=    0.0272 (will be added to EATOM!!)
  PAW_PBE Pd 04Jan2005                  :
 energy of atom  2       EATOM= -809.7530
 kinetic energy error for atom=    0.0269 (will be added to EATOM!!)
  PAW_PBE Rh 04Feb2005                  :
 energy of atom  3       EATOM= -616.4198
 kinetic energy error for atom=    0.0105 (will be added to EATOM!!)
 
 
 POSCAR: Ag Pd Rh                                
  positions in cartesian coordinates
  No initial velocities read in
 exchange correlation table for  LEXCH =        8
   RHO(1)=    0.500       N(1)  =     2000
   RHO(2)=  100.500       N(2)  =     4000
 


--------------------------------------------------------------------------------------------------------


 ion  position               nearest neighbor table
   1  0.500  0.000  0.656-  17 2.79  19 2.79  18 2.79  19 2.79  17 2.79  18 2.79  16 2.79  15 2.79
                            14 2.79
   2  0.833  0.333  0.344-  20 2.79   8 2.79   6 2.79   4 2.79   3 2.79   4 2.79   5 2.79   3 2.79
                             5 2.79
   3  0.333  0.333  0.344-   8 2.79   7 2.79  20 2.79   5 2.79   2 2.79   4 2.79   5 2.79   2 2.79
                             4 2.79
   4  0.833  0.833  0.344-   6 2.79   7 2.79  20 2.79   5 2.79   2 2.79   2 2.79   3 2.79   3 2.79
                             5 2.79
   5  0.333  0.833  0.344-   7 2.79   6 2.79   8 2.79   4 2.79   3 2.79   2 2.79   3 2.79   2 2.79
                             4 2.79
   6  0.000  0.000  0.422-   9 2.79  11 2.79  10 2.79   4 2.79   5 2.79   2 2.79   7 2.79  20 2.79
                             8 2.79  20 2.79   7 2.79   8 2.79
   7  0.500  0.000  0.422-  10 2.79  12 2.79   9 2.79   5 2.79   3 2.79   4 2.79   8 2.79   6 2.79
                             8 2.79  20 2.79   6 2.79  20 2.79
   8  0.500  0.500  0.422-  12 2.79  10 2.79  11 2.79   3 2.79   5 2.79   2 2.79   7 2.79  20 2.79
                             6 2.79   7 2.79   6 2.79  20 2.79
   9  0.167  0.167  0.500-  13 2.78  16 2.78  14 2.78   6 2.79  20 2.79   7 2.79  10 2.79  11 2.79
                            11 2.79  12 2.79  10 2.79  12 2.79
  10  0.667  0.167  0.500-  14 2.78  15 2.78  13 2.78   7 2.79   8 2.79   6 2.79  12 2.79   9 2.79
                            11 2.79  12 2.79   9 2.79  11 2.79
  11  0.167  0.667  0.500-  14 2.78  15 2.78  16 2.78  20 2.79   6 2.79   8 2.79   9 2.79  12 2.79
                             9 2.79  10 2.79  10 2.79  12 2.79
  12  0.667  0.667  0.500-  13 2.78  16 2.78  15 2.78   8 2.79   7 2.79  20 2.79  10 2.79  11 2.79
                             9 2.79  10 2.79   9 2.79  11 2.79
  13  0.833  0.333  0.578-   9 2.78  12 2.78  10 2.78  14 2.79  15 2.79  15 2.79  16 2.79  14 2.79
                            16 2.79  18 2.79  17 2.79  19 2.79
  14  0.333  0.333  0.578-  10 2.78  11 2.78   9 2.78  13 2.79  16 2.79  15 2.79  16 2.79  13 2.79
                            15 2.79  19 2.79  18 2.79   1 2.79
  15  0.833  0.833  0.578-  10 2.78  11 2.78  12 2.78  13 2.79  16 2.79  13 2.79  14 2.79  14 2.79
                            16 2.79  17 2.79   1 2.79  18 2.79
  16  0.333  0.833  0.578-   9 2.78  12 2.78  11 2.78  14 2.79  15 2.79  13 2.79  14 2.79  13 2.79
                            15 2.79   1 2.79  17 2.79  19 2.79
  17  0.000  0.000  0.656-   1 2.79  18 2.79  18 2.79  19 2.79   1 2.79  19 2.79  15 2.79  16 2.79
                            13 2.79
  18  0.000  0.500  0.656-  17 2.79  19 2.79   1 2.79  17 2.79   1 2.79  19 2.79  13 2.79  14 2.79
                            15 2.79
  19  0.500  0.500  0.656-   1 2.79  18 2.79   1 2.79  17 2.79  17 2.79  18 2.79  14 2.79  16 2.79
                            13 2.79
  20  0.000  0.500  0.422-  11 2.79   9 2.79  12 2.79   2 2.79   4 2.79   3 2.79   8 2.79   6 2.79
                             6 2.79   7 2.79   7 2.79   8 2.79
 
  LATTYP: Found a hexagonal cell.
 ALAT       =     5.5720014357
 C/A-ratio  =     5.2223676856
  
  Lattice vectors:
  
 A1 = (   2.7860007179,  -4.8254947933,   0.0000000000)
 A2 = (  -5.5720014357,   0.0000000000,   0.0000000000)
 A3 = (   0.0000000000,   0.0000000000, -29.0990402424)


Analysis of symmetry for initial positions (statically):
=====================================================================
 Subroutine PRICEL returns:
 Original cell was already a primitive cell.
 

 Routine SETGRP: Setting up the symmetry group for a 
 hexagonal supercell.


 Subroutine GETGRP returns: Found  2 space group operations
 (whereof  1 operations were pure point group operations)
 out of a pool of 24 trial point group operations.


The static configuration has the point symmetry C_1 .
 The point group associated with its full space group is C_1h.


Analysis of symmetry for dynamics (positions and initial velocities):
=====================================================================
 Subroutine PRICEL returns:
 Original cell was already a primitive cell.
 

 Routine SETGRP: Setting up the symmetry group for a 
 hexagonal supercell.


 Subroutine GETGRP returns: Found  2 space group operations
 (whereof  1 operations were pure point group operations)
 out of a pool of 24 trial point group operations.


The dynamic configuration has the point symmetry C_1 .
 The point group associated with its full space group is C_1h.


Analysis of constrained symmetry for selective dynamics:
=====================================================================
 Subroutine PRICEL returns:
 Original cell was already a primitive cell.
 

 Routine SETGRP: Setting up the symmetry group for a 
 hexagonal supercell.


 Subroutine GETGRP returns: Found  2 space group operations
 (whereof  1 operations were pure point group operations)
 out of a pool of 24 trial point group operations.


The constrained configuration has the point symmetry C_1 .
 The point group associated with its full space group is C_1h.


 Subroutine INISYM returns: Found  2 space group operations
 (whereof  1 operations are pure point group operations),
 and found     1 'primitive' translations

 
 
 KPOINTS: 0_0_Rh12_Ag1                            

Automatic generation of k-mesh.
Space group operators:
 irot       det(A)        alpha          n_x          n_y          n_z        tau_x        tau_y        tau_z
    1     1.000000     0.000000     1.000000     0.000000     0.000000     0.000000     0.000000     0.000000
    2    -1.000000   180.000000     0.500000    -0.866025     0.000000     0.500000    -0.500000     0.000000
 
 Subroutine IBZKPT returns following result:
 ===========================================
 
 Found     52 irreducible k-points:
 
 Following reciprocal coordinates:
            Coordinates               Weight
  0.062500  0.062500  0.000000     16.000000
  0.000000  0.062500  0.000000     32.000000
  0.187500  0.062500  0.000000     32.000000
  0.125000  0.187500  0.000000     32.000000
 -0.062500  0.125000  0.000000     32.000000
  0.312500  0.062500  0.000000     32.000000
  0.250000  0.312500  0.000000     32.000000
 -0.062500  0.250000  0.000000     32.000000
  0.437500  0.062500  0.000000     32.000000
  0.375000  0.437500  0.000000     32.000000
 -0.062500  0.375000  0.000000     32.000000
 -0.437500  0.062500  0.000000     32.000000
  0.500000 -0.437500  0.000000     32.000000
 -0.062500  0.500000  0.000000     32.000000
 -0.312500  0.062500  0.000000     32.000000
 -0.375000 -0.312500  0.000000     32.000000
 -0.062500 -0.375000  0.000000     32.000000
 -0.187500  0.062500  0.000000     32.000000
 -0.250000 -0.187500  0.000000     32.000000
 -0.062500 -0.250000  0.000000     32.000000
 -0.062500  0.062500  0.000000     16.000000
 -0.125000 -0.062500  0.000000     32.000000
  0.187500  0.187500  0.000000     16.000000
  0.000000  0.187500  0.000000     32.000000
  0.312500  0.187500  0.000000     32.000000
  0.125000  0.312500  0.000000     32.000000
 -0.187500  0.125000  0.000000     32.000000
  0.437500  0.187500  0.000000     32.000000
  0.250000  0.437500  0.000000     32.000000
 -0.187500  0.250000  0.000000     32.000000
 -0.437500  0.187500  0.000000     32.000000
  0.375000 -0.437500  0.000000     32.000000
 -0.187500  0.375000  0.000000     32.000000
 -0.312500  0.187500  0.000000     32.000000
  0.500000 -0.312500  0.000000     32.000000
 -0.187500  0.500000  0.000000     32.000000
 -0.187500  0.187500  0.000000     16.000000
 -0.375000 -0.187500  0.000000     32.000000
  0.312500  0.312500  0.000000     16.000000
  0.000000  0.312500  0.000000     32.000000
  0.437500  0.312500  0.000000     32.000000
  0.125000  0.437500  0.000000     32.000000
 -0.312500  0.125000  0.000000     32.000000
 -0.437500  0.312500  0.000000     32.000000
  0.250000 -0.437500  0.000000     32.000000
 -0.312500  0.250000  0.000000     32.000000
 -0.312500  0.312500  0.000000     16.000000
  0.375000 -0.312500  0.000000     32.000000
  0.437500  0.437500  0.000000     16.000000
  0.000000  0.437500  0.000000     32.000000
 -0.437500  0.437500  0.000000     16.000000
  0.125000 -0.437500  0.000000     32.000000
 
 Following cartesian coordinates:
            Coordinates               Weight
  0.011217  0.006476  0.000000     16.000000
  0.000000  0.012952  0.000000     32.000000
  0.033650 -0.006476  0.000000     32.000000
  0.022434  0.025904  0.000000     32.000000
 -0.011217  0.032380  0.000000     32.000000
  0.056084 -0.019428  0.000000     32.000000
  0.044867  0.038856  0.000000     32.000000
 -0.011217  0.058284  0.000000     32.000000
  0.078518 -0.032380  0.000000     32.000000
  0.067301  0.051808  0.000000     32.000000
 -0.011217  0.084188  0.000000     32.000000
 -0.078518  0.058284  0.000000     32.000000
  0.089734 -0.142472  0.000000     32.000000
 -0.011217  0.110092  0.000000     32.000000
 -0.056084  0.045332  0.000000     32.000000
 -0.067301 -0.025904  0.000000     32.000000
 -0.011217 -0.071236  0.000000     32.000000
 -0.033650  0.032380  0.000000     32.000000
 -0.044867 -0.012952  0.000000     32.000000
 -0.011217 -0.045332  0.000000     32.000000
 -0.011217  0.019428  0.000000     16.000000
 -0.022434  0.000000  0.000000     32.000000
  0.033650  0.019428  0.000000     16.000000
  0.000000  0.038856  0.000000     32.000000
  0.056084  0.006476  0.000000     32.000000
  0.022434  0.051808  0.000000     32.000000
 -0.033650  0.045332  0.000000     32.000000
  0.078518 -0.006476  0.000000     32.000000
  0.044867  0.064760  0.000000     32.000000
 -0.033650  0.071236  0.000000     32.000000
 -0.078518  0.084188  0.000000     32.000000
  0.067301 -0.129520  0.000000     32.000000
 -0.033650  0.097140  0.000000     32.000000
 -0.056084  0.071236  0.000000     32.000000
  0.089734 -0.116568  0.000000     32.000000
 -0.033650  0.123044  0.000000     32.000000
 -0.033650  0.058284  0.000000     16.000000
 -0.067301  0.000000  0.000000     32.000000
  0.056084  0.032380  0.000000     16.000000
  0.000000  0.064760  0.000000     32.000000
  0.078518  0.019428  0.000000     32.000000
  0.022434  0.077712  0.000000     32.000000
 -0.056084  0.058284  0.000000     32.000000
 -0.078518  0.110092  0.000000     32.000000
  0.044867 -0.116568  0.000000     32.000000
 -0.056084  0.084188  0.000000     32.000000
 -0.056084  0.097140  0.000000     16.000000
  0.067301 -0.103616  0.000000     32.000000
  0.078518  0.045332  0.000000     16.000000
  0.000000  0.090664  0.000000     32.000000
 -0.078518  0.135996  0.000000     16.000000
  0.022434 -0.103616  0.000000     32.000000
 


--------------------------------------------------------------------------------------------------------




 Dimension of arrays:
   k-points           NKPTS =     52   k-points in BZ     NKDIM =     52   number of bands    NBANDS=    120
   number of dos      NEDOS =    301   number of ions     NIONS =     20
   non local maximal  LDIM  =      6   non local SUM 2l+1 LMDIM =     18
   total plane-waves  NPLWV = 109760
   max r-space proj   IRMAX =   2305   max aug-charges    IRDMAX=   8172
   dimension x,y,z NGX =    28 NGY =   28 NGZ =  140
   dimension x,y,z NGXF=    56 NGYF=   56 NGZF=  280
   support grid    NGXF=    56 NGYF=   56 NGZF=  280
   ions per type =               1  18   1
   NGX,Y,Z   is equivalent  to a cutoff of   8.35,  8.35,  8.00 a.u.
   NGXF,Y,Z  is equivalent  to a cutoff of  16.71, 16.71, 16.00 a.u.

 SYSTEM =  0_0_Rh12_Ag1                            
 POSCAR =  Ag Pd Rh                                

 Startparameter for this run:
   NWRITE =      2    write-flag & timer
   PREC   = normal    normal or accurate (medium, high low for compatibility)
   ISTART =      0    job   : 0-new  1-cont  2-samecut
   ICHARG =      2    charge: 1-file 2-atom 10-const
   ISPIN  =      1    spin polarized calculation?
   LNONCOLLINEAR =      F non collinear calculations
   LSORBIT =      F    spin-orbit coupling
   INIWAV =      1    electr: 0-lowe 1-rand  2-diag
   LASPH  =      F    aspherical Exc in radial PAW
   METAGGA=      F    non-selfconsistent MetaGGA calc.

 Electronic Relaxation 1
   ENCUT  =  350.0 eV  25.72 Ry    5.07 a.u.   8.50  8.50 44.39*2*pi/ulx,y,z
   ENINI  =  350.0     initial cutoff
   ENAUG  =  416.2 eV  augmentation charge cutoff
   NELM   =    300;   NELMIN=  5; NELMDL= -5     # of ELM steps 
   EDIFF  = 0.1E-04   stopping-criterion for ELM
   LREAL  =      T    real-space projection
   NLSPLINE    = F    spline interpolate recip. space projectors
   LCOMPAT=      F    compatible to vasp.4.4
   GGA_COMPAT  = T    GGA compatible to vasp.4.4-vasp.4.6
   LMAXPAW     = -100 max onsite density
   LMAXMIX     =    2 max onsite mixed and CHGCAR
   VOSKOWN=      0    Vosko Wilk Nusair interpolation
   ROPT   =   -0.00050  -0.00050  -0.00050
 Ionic relaxation
   EDIFFG = 0.1E-03   stopping-criterion for IOM
   NSW    =      0    number of steps for IOM
   NBLOCK =      1;   KBLOCK =      1    inner block; outer block 
   IBRION =     -1    ionic relax: 0-MD 1-quasi-New 2-CG
   NFREE  =      0    steps in history (QN), initial steepest desc. (CG)
   ISIF   =      2    stress and relaxation
   IWAVPR =     10    prediction:  0-non 1-charg 2-wave 3-comb
   ISYM   =      2    0-nonsym 1-usesym 2-fastsym
   LCORR  =      T    Harris-Foulkes like correction to forces

   POTIM  = 0.5000    time-step for ionic-motion
   TEIN   =    0.0    initial temperature
   TEBEG  =    0.0;   TEEND  =   0.0 temperature during run
   SMASS  =  -3.00    Nose mass-parameter (am)
   estimated Nose-frequenzy (Omega)   =  0.10E-29 period in steps =****** mass=  -0.710E-27a.u.
   SCALEE = 1.0000    scale energy and forces
   NPACO  =    256;   APACO  = 16.0  distance and # of slots for P.C.
   PSTRESS=    0.0 pullay stress

  Mass of Ions in am
   POMASS = 107.87106.42102.91
  Ionic Valenz
   ZVAL   =  11.00 10.00  9.00
  Atomic Wigner-Seitz radii
   RWIGS  =  -1.00 -1.00 -1.00
  virtual crystal weights 
   VCA    =   1.00  1.00  1.00
   NELECT =     200.0000    total number of electrons
   NUPDOWN=      -1.0000    fix difference up-down

 DOS related values:
   EMIN   =  10.00;   EMAX   =-10.00  energy-range for DOS
   EFERMI =   0.00
   ISMEAR =     1;   SIGMA  =   0.40  broadening in eV -4-tet -1-fermi 0-gaus

 Electronic relaxation 2 (details)
   IALGO  =     38    algorithm
   LDIAG  =      T    sub-space diagonalisation (order eigenvalues)
   LSUBROT=      F    optimize rotation matrix (better conditioning)
   TURBO    =      0    0=normal 1=particle mesh
   IRESTART =      0    0=no restart 2=restart with 2 vectors
   NREBOOT  =      0    no. of reboots
   NMIN     =      0    reboot dimension
   EREF     =   0.00    reference energy to select bands
   IMIX   =      4    mixing-type and parameters
     AMIX     =   0.40;   BMIX     =  1.00
     AMIX_MAG =   1.60;   BMIX_MAG =  1.00
     AMIN     =   0.10
     WC   =   100.;   INIMIX=   1;  MIXPRE=   1;  MAXMIX= -45

 Intra band minimization:
   WEIMIN = 0.0000     energy-eigenvalue tresh-hold
   EBREAK =  0.21E-07  absolut break condition
   DEPER  =   0.30     relativ break condition  

   TIME   =   0.40     timestep for ELM

  volume/ion in A,a.u.               =      39.12       264.00
  Fermi-wavevector in a.u.,A,eV,Ry     =   1.038981  1.963389 14.687236  1.079481
  Thomas-Fermi vector in A             =   2.173490
 
 Write flags
   LWAVE        =      F    write WAVECAR
   LDOWNSAMPLE  =      F    k-point downsampling of WAVECAR
   LCHARG       =      F    write CHGCAR
   LVTOT        =      F    write LOCPOT, total local potential
   LVHAR        =      F    write LOCPOT, Hartree potential only
   LELF         =      F    write electronic localiz. function (ELF)
   LORBIT       =     11    0 simple, 1 ext, 2 COOP (PROOUT), +10 PAW based schemes


 Dipole corrections
   LMONO  =      F    monopole corrections only (constant potential shift)
   LDIPOL =      F    correct potential (dipole corrections)
   IDIPOL =      0    1-x, 2-y, 3-z, 4-all directions 
   EPSILON=  1.0000000 bulk dielectric constant

 Exchange correlation treatment:
   GGA     =    --    GGA type
   LEXCH   =     8    internal setting for exchange type
   VOSKOWN=      0    Vosko Wilk Nusair interpolation
   LHFCALC =     F    Hartree Fock is set to
   LHFONE  =     F    Hartree Fock one center treatment
   AEXX    =    0.0000 exact exchange contribution

 Linear response parameters
   LEPSILON=     F    determine dielectric tensor
   LRPA    =     F    only Hartree local field effects (RPA)
   LNABLA  =     F    use nabla operator in PAW spheres
   LVEL    =     F    velocity operator in full k-point grid
   LINTERFAST=   F  fast interpolation
   KINTER  =     0    interpolate to denser k-point grid
   CSHIFT  =0.1000    complex shift for real part using Kramers Kronig
   OMEGAMAX=  -1.0    maximum frequency
   DEG_THRESHOLD= 0.2000000E-02 threshold for treating states as degnerate
   RTIME   =   -0.100 relaxation time in fs
  (WPLASMAI=    0.000 imaginary part of plasma frequency in eV, 0.658/RTIME)
   DFIELD  = 0.0000000 0.0000000 0.0000000 field for delta impulse in time
 
 Orbital magnetization related:
   ORBITALMAG=     F  switch on orbital magnetization
   LCHIMAG   =     F  perturbation theory with respect to B field
   DQ        =  0.001000  dq finite difference perturbation B field
   LLRAUG    =     F  two centre corrections for induced B field



--------------------------------------------------------------------------------------------------------


 Static calculation
 charge density and potential will be updated during run
 non-spin polarized calculation
 Variant of blocked Davidson
 Davidson routine will perform the subspace rotation
 perform sub-space diagonalisation
    after iterative eigenvector-optimisation
 modified Broyden-mixing scheme, WC =      100.0
 initial mixing is a Kerker type mixing with AMIX =  0.4000 and BMIX =      1.0000
 Hartree-type preconditioning will be used
 using additional bands           20
 real space projection scheme for non local part
 use partial core corrections
 calculate Harris-corrections to forces 
   (improved forces if not selfconsistent)
 use gradient corrections 
 use of overlap-Matrix (Vanderbilt PP)
 Methfessel and Paxton  Order N= 1 SIGMA  =   0.40


--------------------------------------------------------------------------------------------------------


  energy-cutoff  :      350.00
  volume of cell :      782.41
      direct lattice vectors                 reciprocal lattice vectors
     5.572001436  0.000000000  0.000000000     0.179468726 -0.103616317  0.000000000
     2.786000718  4.825494793  0.000000000     0.000000000  0.207232635  0.000000000
     0.000000000  0.000000000 29.099040242     0.000000000  0.000000000  0.034365395

  length of vectors
     5.572001436  5.572001436 29.099040242     0.207232635  0.207232635  0.034365395


 
 k-points in units of 2pi/SCALE and weight: 0_0_Rh12_Ag1                            
   0.01121680  0.00647602  0.00000000       0.010
   0.00000000  0.01295204  0.00000000       0.021
   0.03365039 -0.00647602  0.00000000       0.021
   0.02243359  0.02590408  0.00000000       0.021
  -0.01121680  0.03238010  0.00000000       0.021
   0.05608398 -0.01942806  0.00000000       0.021
   0.04486718  0.03885612  0.00000000       0.021
  -0.01121680  0.05828418  0.00000000       0.021
   0.07851757 -0.03238010  0.00000000       0.021
   0.06730077  0.05180816  0.00000000       0.021
  -0.01121680  0.08418826  0.00000000       0.021
  -0.07851757  0.05828418  0.00000000       0.021
   0.08973436 -0.14247244  0.00000000       0.021
  -0.01121680  0.11009234  0.00000000       0.021
  -0.05608398  0.04533214  0.00000000       0.021
  -0.06730077 -0.02590408  0.00000000       0.021
  -0.01121680 -0.07123622  0.00000000       0.021
  -0.03365039  0.03238010  0.00000000       0.021
  -0.04486718 -0.01295204  0.00000000       0.021
  -0.01121680 -0.04533214  0.00000000       0.021
  -0.01121680  0.01942806  0.00000000       0.010
  -0.02243359  0.00000000  0.00000000       0.021
   0.03365039  0.01942806  0.00000000       0.010
   0.00000000  0.03885612  0.00000000       0.021
   0.05608398  0.00647602  0.00000000       0.021
   0.02243359  0.05180816  0.00000000       0.021
  -0.03365039  0.04533214  0.00000000       0.021
   0.07851757 -0.00647602  0.00000000       0.021
   0.04486718  0.06476020  0.00000000       0.021
  -0.03365039  0.07123622  0.00000000       0.021
  -0.07851757  0.08418826  0.00000000       0.021
   0.06730077 -0.12952040  0.00000000       0.021
  -0.03365039  0.09714030  0.00000000       0.021
  -0.05608398  0.07123622  0.00000000       0.021
   0.08973436 -0.11656836  0.00000000       0.021
  -0.03365039  0.12304438  0.00000000       0.021
  -0.03365039  0.05828418  0.00000000       0.010
  -0.06730077  0.00000000  0.00000000       0.021
   0.05608398  0.03238010  0.00000000       0.010
   0.00000000  0.06476020  0.00000000       0.021
   0.07851757  0.01942806  0.00000000       0.021
   0.02243359  0.07771224  0.00000000       0.021
  -0.05608398  0.05828418  0.00000000       0.021
  -0.07851757  0.11009234  0.00000000       0.021
   0.04486718 -0.11656836  0.00000000       0.021
  -0.05608398  0.08418826  0.00000000       0.021
  -0.05608398  0.09714030  0.00000000       0.010
   0.06730077 -0.10361632  0.00000000       0.021
   0.07851757  0.04533214  0.00000000       0.010
   0.00000000  0.09066428  0.00000000       0.021
  -0.07851757  0.13599642  0.00000000       0.010
   0.02243359 -0.10361632  0.00000000       0.021
 
 k-points in reciprocal lattice and weights: 0_0_Rh12_Ag1                            
   0.06250000  0.06250000  0.00000000       0.010
   0.00000000  0.06250000  0.00000000       0.021
   0.18750000  0.06250000  0.00000000       0.021
   0.12500000  0.18750000  0.00000000       0.021
  -0.06250000  0.12500000  0.00000000       0.021
   0.31250000  0.06250000  0.00000000       0.021
   0.25000000  0.31250000  0.00000000       0.021
  -0.06250000  0.25000000  0.00000000       0.021
   0.43750000  0.06250000  0.00000000       0.021
   0.37500000  0.43750000  0.00000000       0.021
  -0.06250000  0.37500000  0.00000000       0.021
  -0.43750000  0.06250000  0.00000000       0.021
   0.50000000 -0.43750000  0.00000000       0.021
  -0.06250000  0.50000000  0.00000000       0.021
  -0.31250000  0.06250000  0.00000000       0.021
  -0.37500000 -0.31250000  0.00000000       0.021
  -0.06250000 -0.37500000  0.00000000       0.021
  -0.18750000  0.06250000  0.00000000       0.021
  -0.25000000 -0.18750000  0.00000000       0.021
  -0.06250000 -0.25000000  0.00000000       0.021
  -0.06250000  0.06250000  0.00000000       0.010
  -0.12500000 -0.06250000  0.00000000       0.021
   0.18750000  0.18750000  0.00000000       0.010
   0.00000000  0.18750000  0.00000000       0.021
   0.31250000  0.18750000  0.00000000       0.021
   0.12500000  0.31250000  0.00000000       0.021
  -0.18750000  0.12500000  0.00000000       0.021
   0.43750000  0.18750000  0.00000000       0.021
   0.25000000  0.43750000  0.00000000       0.021
  -0.18750000  0.25000000  0.00000000       0.021
  -0.43750000  0.18750000  0.00000000       0.021
   0.37500000 -0.43750000  0.00000000       0.021
  -0.18750000  0.37500000  0.00000000       0.021
  -0.31250000  0.18750000  0.00000000       0.021
   0.50000000 -0.31250000  0.00000000       0.021
  -0.18750000  0.50000000  0.00000000       0.021
  -0.18750000  0.18750000  0.00000000       0.010
  -0.37500000 -0.18750000  0.00000000       0.021
   0.31250000  0.31250000  0.00000000       0.010
   0.00000000  0.31250000  0.00000000       0.021
   0.43750000  0.31250000  0.00000000       0.021
   0.12500000  0.43750000  0.00000000       0.021
  -0.31250000  0.12500000  0.00000000       0.021
  -0.43750000  0.31250000  0.00000000       0.021
   0.25000000 -0.43750000  0.00000000       0.021
  -0.31250000  0.25000000  0.00000000       0.021
  -0.31250000  0.31250000  0.00000000       0.010
   0.37500000 -0.31250000  0.00000000       0.021
   0.43750000  0.43750000  0.00000000       0.010
   0.00000000  0.43750000  0.00000000       0.021
  -0.43750000  0.43750000  0.00000000       0.010
   0.12500000 -0.43750000  0.00000000       0.021
 
 position of ions in fractional coordinates (direct lattice) 
   0.50000000  0.00000000  0.65638769
   0.83333333  0.33333333  0.34365395
   0.33333333  0.33333333  0.34365395
   0.83333333  0.83333333  0.34365395
   0.33333333  0.83333333  0.34365395
   0.00000000  0.00000000  0.42182697
   0.50000000  0.00000000  0.42182697
   0.50000000  0.50000000  0.42182697
   0.16666667  0.16666667  0.49998846
   0.66666667  0.16666667  0.49998846
   0.16666667  0.66666667  0.49998846
   0.66666667  0.66666667  0.49998846
   0.83333333  0.33333333  0.57799558
   0.33333333  0.33333333  0.57799558
   0.83333333  0.83333333  0.57799558
   0.33333333  0.83333333  0.57799558
   0.00000000  0.00000000  0.65638769
   0.00000000  0.50000000  0.65638769
   0.50000000  0.50000000  0.65638769
   0.00000000  0.50000000  0.42182697
 
 position of ions in cartesian coordinates  (Angst):
   2.78600072  0.00000000 19.10025190
   5.57200144  1.60849826 10.00000000
   2.78600072  1.60849826 10.00000000
   6.96500179  4.02124566 10.00000000
   4.17900108  4.02124566 10.00000000
   0.00000000  0.00000000 12.27476006
   2.78600072  0.00000000 12.27476006
   4.17900108  2.41274740 12.27476006
   1.39300036  0.80424913 14.54918418
   4.17900108  0.80424913 14.54918418
   2.78600072  3.21699653 14.54918418
   5.57200144  3.21699653 14.54918418
   5.57200144  1.60849826 16.81911654
   2.78600072  1.60849826 16.81911654
   6.96500179  4.02124566 16.81911654
   4.17900108  4.02124566 16.81911654
   0.00000000  0.00000000 19.10025190
   1.39300036  2.41274740 19.10025190
   4.17900108  2.41274740 19.10025190
   1.39300036  2.41274740 12.27476006
 


--------------------------------------------------------------------------------------------------------


 k-point  1 :   0.0625 0.0625 0.0000  plane waves:   11699
 k-point  2 :   0.0000 0.0625 0.0000  plane waves:   11699
 k-point  3 :   0.1875 0.0625 0.0000  plane waves:   11678
 k-point  4 :   0.1250 0.1875 0.0000  plane waves:   11678
 k-point  5 :  -0.0625 0.1250 0.0000  plane waves:   11678
 k-point  6 :   0.3125 0.0625 0.0000  plane waves:   11644
 k-point  7 :   0.2500 0.3125 0.0000  plane waves:   11644
 k-point  8 :  -0.0625 0.2500 0.0000  plane waves:   11644
 k-point  9 :   0.4375 0.0625 0.0000  plane waves:   11613
 k-point 10 :   0.3750 0.4375 0.0000  plane waves:   11613
 k-point 11 :  -0.0625 0.3750 0.0000  plane waves:   11613
 k-point 12 :  -0.4375 0.0625 0.0000  plane waves:   11584
 k-point 13 :   0.5000-0.4375 0.0000  plane waves:   11584
 k-point 14 :  -0.0625 0.5000 0.0000  plane waves:   11584
 k-point 15 :  -0.3125 0.0625 0.0000  plane waves:   11633
 k-point 16 :  -0.3750-0.3125 0.0000  plane waves:   11633
 k-point 17 :  -0.0625-0.3750 0.0000  plane waves:   11633
 k-point 18 :  -0.1875 0.0625 0.0000  plane waves:   11664
 k-point 19 :  -0.2500-0.1875 0.0000  plane waves:   11664
 k-point 20 :  -0.0625-0.2500 0.0000  plane waves:   11664
 k-point 21 :  -0.0625 0.0625 0.0000  plane waves:   11701
 k-point 22 :  -0.1250-0.0625 0.0000  plane waves:   11701
 k-point 23 :   0.1875 0.1875 0.0000  plane waves:   11669
 k-point 24 :   0.0000 0.1875 0.0000  plane waves:   11669
 k-point 25 :   0.3125 0.1875 0.0000  plane waves:   11655
 k-point 26 :   0.1250 0.3125 0.0000  plane waves:   11655
 k-point 27 :  -0.1875 0.1250 0.0000  plane waves:   11655
 k-point 28 :   0.4375 0.1875 0.0000  plane waves:   11637
 k-point 29 :   0.2500 0.4375 0.0000  plane waves:   11637
 k-point 30 :  -0.1875 0.2500 0.0000  plane waves:   11637
 k-point 31 :  -0.4375 0.1875 0.0000  plane waves:   11602
 k-point 32 :   0.3750-0.4375 0.0000  plane waves:   11602
 k-point 33 :  -0.1875 0.3750 0.0000  plane waves:   11602
 k-point 34 :  -0.3125 0.1875 0.0000  plane waves:   11602
 k-point 35 :   0.5000-0.3125 0.0000  plane waves:   11602
 k-point 36 :  -0.1875 0.5000 0.0000  plane waves:   11602
 k-point 37 :  -0.1875 0.1875 0.0000  plane waves:   11673
 k-point 38 :  -0.3750-0.1875 0.0000  plane waves:   11673
 k-point 39 :   0.3125 0.3125 0.0000  plane waves:   11649
 k-point 40 :   0.0000 0.3125 0.0000  plane waves:   11649
 k-point 41 :   0.4375 0.3125 0.0000  plane waves:   11619
 k-point 42 :   0.1250 0.4375 0.0000  plane waves:   11619
 k-point 43 :  -0.3125 0.1250 0.0000  plane waves:   11619
 k-point 44 :  -0.4375 0.3125 0.0000  plane waves:   11603
 k-point 45 :   0.2500-0.4375 0.0000  plane waves:   11603
 k-point 46 :  -0.3125 0.2500 0.0000  plane waves:   11603
 k-point 47 :  -0.3125 0.3125 0.0000  plane waves:   11606
 k-point 48 :   0.3750-0.3125 0.0000  plane waves:   11606
 k-point 49 :   0.4375 0.4375 0.0000  plane waves:   11610
 k-point 50 :   0.0000 0.4375 0.0000  plane waves:   11610
 k-point 51 :  -0.4375 0.4375 0.0000  plane waves:   11600
 k-point 52 :   0.1250-0.4375 0.0000  plane waves:   11600

 maximum and minimum number of plane-waves per node :      1694     1624

 maximum number of plane-waves:     11701
 maximum index in each direction: 
   IXMAX=    8   IYMAX=    8   IZMAX=   44
   IXMIN=   -8   IYMIN=   -8   IZMIN=  -44


 real space projection operators:
  total allocation   :       5595.47 KBytes
  max/ min on nodes  :        806.77        790.17


 parallel 3D FFT for wavefunctions:
    minimum data exchange during FFTs selected (reduces bandwidth)
 parallel 3D FFT for charge:
    minimum data exchange during FFTs selected (reduces bandwidth)


 total amount of memory used by VASP MPI-rank0    79318. kBytes
=======================================================================

   base      :      30000. kBytes
   nonlr-proj:       1753. kBytes
   fftplans  :       1543. kBytes
   grid      :       2646. kBytes
   one-center:         46. kBytes
   wavefun   :      43330. kBytes
 
     INWAV:  cpu time    0.0001: real time    0.0001
 Broyden mixing: mesh for mixing (old mesh)
   NGX = 17   NGY = 17   NGZ = 89
  (NGX  = 56   NGY  = 56   NGZ  =280)
  gives a total of  25721 points

 initial charge density was supplied:
 charge density of overlapping atoms calculated
 number of electron     200.0000000 magnetization 
 keeping initial charge density in first step


--------------------------------------------------------------------------------------------------------


 Maximum index for non-local projection operator          325
 Maximum index for augmentation-charges          427 (set IRDMAX)


--------------------------------------------------------------------------------------------------------


 First call to EWALD:  gamma=   0.192
 Maximum number of real-space cells 5x 5x 1
 Maximum number of reciprocal cells 2x 2x 8

    FEWALD:  cpu time    0.0013: real time    0.0013


--------------------------------------- Iteration      1(   1)  ---------------------------------------


    POTLOK:  cpu time    0.0192: real time    0.0293
    SETDIJ:  cpu time    0.0026: real time    0.0026
     EDDAV:  cpu time   10.8302: real time   10.8347
       DOS:  cpu time    0.0086: real time    0.0086
    --------------------------------------------
      LOOP:  cpu time   10.8606: real time   10.8751

 eigenvalue-minimisations  : 12576
 total energy-change (2. order) : 0.1096356E+04  (-0.7516477E+04)
 number of electron     200.0000000 magnetization 
 augmentation part      200.0000000 magnetization 

 Free energy of the ion-electron system (eV)
  ---------------------------------------------------
  alpha Z        PSCENC =       335.40302569
  Ewald energy   TEWEN  =    106938.88839235
  -Hartree energ DENC   =   -123799.30560946
  -exchange      EXHF   =         0.00000000
  -V(xc)+E(xc)   XCENC  =      -557.52836399
  PAW double counting   =     16130.81764090   -14922.76608720
  entropy T*S    EENTRO =        -0.01603497
  eigenvalues    EBANDS =       742.14359784
  atomic energy  EATOM  =     16228.71987288
  Solvation  Ediel_sol  =         0.00000000
  ---------------------------------------------------
  free energy    TOTEN  =      1096.35643404 eV

  energy without entropy =     1096.37246901  energy(sigma->0) =     1096.36177903


--------------------------------------------------------------------------------------------------------




--------------------------------------- Iteration      1(   2)  ---------------------------------------


     EDDAV:  cpu time   11.7887: real time   11.7978
       DOS:  cpu time    0.0103: real time    0.0103
    --------------------------------------------
      LOOP:  cpu time   11.7990: real time   11.8080

 eigenvalue-minimisations  : 14312
 total energy-change (2. order) :-0.1137917E+04  (-0.1066926E+04)
 number of electron     200.0000000 magnetization 
 augmentation part      200.0000000 magnetization 

 Free energy of the ion-electron system (eV)
  ---------------------------------------------------
  alpha Z        PSCENC =       335.40302569
  Ewald energy   TEWEN  =    106938.88839235
  -Hartree energ DENC   =   -123799.30560946
  -exchange      EXHF   =         0.00000000
  -V(xc)+E(xc)   XCENC  =      -557.52836399
  PAW double counting   =     16130.81764090   -14922.76608720
  entropy T*S    EENTRO =         0.05316536
  eigenvalues    EBANDS =      -395.84231440
  atomic energy  EATOM  =     16228.71987288
  Solvation  Ediel_sol  =         0.00000000
  ---------------------------------------------------
  free energy    TOTEN  =       -41.56027787 eV

  energy without entropy =      -41.61344322  energy(sigma->0) =      -41.57799965


--------------------------------------------------------------------------------------------------------




--------------------------------------- Iteration      1(   3)  ---------------------------------------


     EDDAV:  cpu time   11.8518: real time   11.8614
       DOS:  cpu time    0.0111: real time    0.0111
    --------------------------------------------
      LOOP:  cpu time   11.8630: real time   11.8726

 eigenvalue-minimisations  : 14416
 total energy-change (2. order) :-0.6133532E+02  (-0.5470750E+02)
 number of electron     200.0000000 magnetization 
 augmentation part      200.0000000 magnetization 

 Free energy of the ion-electron system (eV)
  ---------------------------------------------------
  alpha Z        PSCENC =       335.40302569
  Ewald energy   TEWEN  =    106938.88839235
  -Hartree energ DENC   =   -123799.30560946
  -exchange      EXHF   =         0.00000000
  -V(xc)+E(xc)   XCENC  =      -557.52836399
  PAW double counting   =     16130.81764090   -14922.76608720
  entropy T*S    EENTRO =        -0.30528604
  eigenvalues    EBANDS =      -456.81918284
  atomic energy  EATOM  =     16228.71987288
  Solvation  Ediel_sol  =         0.00000000
  ---------------------------------------------------
  free energy    TOTEN  =      -102.89559771 eV

  energy without entropy =     -102.59031167  energy(sigma->0) =     -102.79383569


--------------------------------------------------------------------------------------------------------




--------------------------------------- Iteration      1(   4)  ---------------------------------------


     EDDAV:  cpu time   11.9339: real time   11.9381
       DOS:  cpu time    0.0114: real time    0.0115
    --------------------------------------------
      LOOP:  cpu time   11.9454: real time   11.9495

 eigenvalue-minimisations  : 14576
 total energy-change (2. order) :-0.1929199E+01  (-0.1901601E+01)
 number of electron     200.0000000 magnetization 
 augmentation part      200.0000000 magnetization 

 Free energy of the ion-electron system (eV)
  ---------------------------------------------------
  alpha Z        PSCENC =       335.40302569
  Ewald energy   TEWEN  =    106938.88839235
  -Hartree energ DENC   =   -123799.30560946
  -exchange      EXHF   =         0.00000000
  -V(xc)+E(xc)   XCENC  =      -557.52836399
  PAW double counting   =     16130.81764090   -14922.76608720
  entropy T*S    EENTRO =        -0.31391760
  eigenvalues    EBANDS =      -458.73975009
  atomic energy  EATOM  =     16228.71987288
  Solvation  Ediel_sol  =         0.00000000
  ---------------------------------------------------
  free energy    TOTEN  =      -104.82479652 eV

  energy without entropy =     -104.51087892  energy(sigma->0) =     -104.72015732


--------------------------------------------------------------------------------------------------------




--------------------------------------- Iteration      1(   5)  ---------------------------------------


     EDDAV:  cpu time   12.4728: real time   12.4862
       DOS:  cpu time    0.0114: real time    0.0114
    CHARGE:  cpu time    0.4551: real time    0.4553
    MIXING:  cpu time    0.0010: real time    0.0010
    --------------------------------------------
      LOOP:  cpu time   12.9404: real time   12.9539

 eigenvalue-minimisations  : 15488
 total energy-change (2. order) :-0.6257266E-01  (-0.6252943E-01)
 number of electron     199.9999781 magnetization 
 augmentation part       81.1617044 magnetization 

 Broyden mixing:
  rms(total) = 0.28787E+01    rms(broyden)= 0.28784E+01
  rms(prec ) = 0.29207E+01
  weight for this iteration     100.00

 Free energy of the ion-electron system (eV)
  ---------------------------------------------------
  alpha Z        PSCENC =       335.40302569
  Ewald energy   TEWEN  =    106938.88839235
  -Hartree energ DENC   =   -123799.30560946
  -exchange      EXHF   =         0.00000000
  -V(xc)+E(xc)   XCENC  =      -557.52836399
  PAW double counting   =     16130.81764090   -14922.76608720
  entropy T*S    EENTRO =        -0.31398150
  eigenvalues    EBANDS =      -458.80225885
  atomic energy  EATOM  =     16228.71987288
  Solvation  Ediel_sol  =         0.00000000
  ---------------------------------------------------
  free energy    TOTEN  =      -104.88736918 eV

  energy without entropy =     -104.57338768  energy(sigma->0) =     -104.78270868


--------------------------------------------------------------------------------------------------------




--------------------------------------- Iteration      1(   6)  ---------------------------------------


    POTLOK:  cpu time    0.0166: real time    0.0167
    SETDIJ:  cpu time    0.0025: real time    0.0025
     EDDAV:  cpu time   11.1492: real time   11.1526
       DOS:  cpu time    0.0114: real time    0.0114
    CHARGE:  cpu time    0.4537: real time    0.4538
    MIXING:  cpu time    0.0010: real time    0.0010
    --------------------------------------------
      LOOP:  cpu time   11.6345: real time   11.6380

 eigenvalue-minimisations  : 13200
 total energy-change (2. order) :-0.1672614E+01  (-0.3224241E+01)
 number of electron     199.9999764 magnetization 
 augmentation part       84.0261082 magnetization 

 Broyden mixing:
  rms(total) = 0.28051E+01    rms(broyden)= 0.28049E+01
  rms(prec ) = 0.37691E+01
  weight for this iteration     100.00

 eigenvalues of (default mixing * dielectric matrix)
  average eigenvalue GAMMA=   0.5732
  0.5732

 Free energy of the ion-electron system (eV)
  ---------------------------------------------------
  alpha Z        PSCENC =       335.40302569
  Ewald energy   TEWEN  =    106938.88839235
  -Hartree energ DENC   =   -123731.20000974
  -exchange      EXHF   =         0.00000000
  -V(xc)+E(xc)   XCENC  =      -561.69862468
  PAW double counting   =     17194.62669344   -16010.05081403
  entropy T*S    EENTRO =        -0.16749290
  eigenvalues    EBANDS =      -501.08102620
  atomic energy  EATOM  =     16228.71987288
  Solvation  Ediel_sol  =         0.00000000
  ---------------------------------------------------
  free energy    TOTEN  =      -106.55998318 eV

  energy without entropy =     -106.39249028  energy(sigma->0) =     -106.50415222


--------------------------------------------------------------------------------------------------------




--------------------------------------- Iteration      1(   7)  ---------------------------------------


    POTLOK:  cpu time    0.0196: real time    0.0206
    SETDIJ:  cpu time    0.0025: real time    0.0025
     EDDAV:  cpu time   13.0439: real time   13.0601
       DOS:  cpu time    0.0104: real time    0.0104
    CHARGE:  cpu time    0.4546: real time    0.4562
    MIXING:  cpu time    0.0009: real time    0.0009
    --------------------------------------------
      LOOP:  cpu time   13.5320: real time   13.5508

 eigenvalue-minimisations  : 16488
 total energy-change (2. order) :-0.3256759E+02  (-0.5895039E+01)
 number of electron     199.9999770 magnetization 
 augmentation part       81.3158669 magnetization 

 Broyden mixing:
  rms(total) = 0.43088E+01    rms(broyden)= 0.43086E+01
  rms(prec ) = 0.66872E+01
  weight for this iteration     100.00

 eigenvalues of (default mixing * dielectric matrix)
  average eigenvalue GAMMA=   0.6593
  1.2045  0.1140

 Free energy of the ion-electron system (eV)
  ---------------------------------------------------
  alpha Z        PSCENC =       335.40302569
  Ewald energy   TEWEN  =    106938.88839235
  -Hartree energ DENC   =   -123759.28182851
  -exchange      EXHF   =         0.00000000
  -V(xc)+E(xc)   XCENC  =      -561.97905285
  PAW double counting   =     17404.87536855   -16224.01478176
  entropy T*S    EENTRO =        -0.03576983
  eigenvalues    EBANDS =      -501.70279702
  atomic energy  EATOM  =     16228.71987288
  Solvation  Ediel_sol  =         0.00000000
  ---------------------------------------------------
  free energy    TOTEN  =      -139.12757051 eV

  energy without entropy =     -139.09180068  energy(sigma->0) =     -139.11564724


--------------------------------------------------------------------------------------------------------




--------------------------------------- Iteration      1(   8)  ---------------------------------------


    POTLOK:  cpu time    0.0158: real time    0.0159
    SETDIJ:  cpu time    0.0024: real time    0.0024
     EDDAV:  cpu time   12.7165: real time   12.7202
       DOS:  cpu time    0.0111: real time    0.0111
    CHARGE:  cpu time    0.4545: real time    0.4545
    MIXING:  cpu time    0.0010: real time    0.0010
    --------------------------------------------
      LOOP:  cpu time   13.2013: real time   13.2052

 eigenvalue-minimisations  : 15920
 total energy-change (2. order) : 0.1374523E+02  (-0.6065557E+01)
 number of electron     199.9999782 magnetization 
 augmentation part       83.1899821 magnetization 

 Broyden mixing:
  rms(total) = 0.37821E+01    rms(broyden)= 0.37819E+01
  rms(prec ) = 0.45684E+01
  weight for this iteration     100.00

 eigenvalues of (default mixing * dielectric matrix)
  average eigenvalue GAMMA=   0.6739
  1.7024  0.2042  0.1150

 Free energy of the ion-electron system (eV)
  ---------------------------------------------------
  alpha Z        PSCENC =       335.40302569
  Ewald energy   TEWEN  =    106938.88839235
  -Hartree energ DENC   =   -123831.23299795
  -exchange      EXHF   =         0.00000000
  -V(xc)+E(xc)   XCENC  =      -563.25228316
  PAW double counting   =     17941.47226282   -16773.06108643
  entropy T*S    EENTRO =        -0.13747776
  eigenvalues    EBANDS =      -402.18204582
  atomic energy  EATOM  =     16228.71987288
  Solvation  Ediel_sol  =         0.00000000
  ---------------------------------------------------
  free energy    TOTEN  =      -125.38233738 eV

  energy without entropy =     -125.24485962  energy(sigma->0) =     -125.33651146


--------------------------------------------------------------------------------------------------------




--------------------------------------- Iteration      1(   9)  ---------------------------------------


    POTLOK:  cpu time    0.0167: real time    0.0168
    SETDIJ:  cpu time    0.0025: real time    0.0025
     EDDAV:  cpu time   11.9127: real time   11.9194
       DOS:  cpu time    0.0116: real time    0.0116
    CHARGE:  cpu time    0.4529: real time    0.4529
    MIXING:  cpu time    0.0010: real time    0.0010
    --------------------------------------------
      LOOP:  cpu time   12.3974: real time   12.4043

 eigenvalue-minimisations  : 14648
 total energy-change (2. order) : 0.2101449E+02  (-0.3242776E+01)
 number of electron     199.9999764 magnetization 
 augmentation part       85.7659960 magnetization 

 Broyden mixing:
  rms(total) = 0.20569E+01    rms(broyden)= 0.20567E+01
  rms(prec ) = 0.25146E+01
  weight for this iteration     100.00

 eigenvalues of (default mixing * dielectric matrix)
  average eigenvalue GAMMA=   0.6162
  1.7350  0.3621  0.2577  0.1099

 Free energy of the ion-electron system (eV)
  ---------------------------------------------------
  alpha Z        PSCENC =       335.40302569
  Ewald energy   TEWEN  =    106938.88839235
  -Hartree energ DENC   =   -123666.18086211
  -exchange      EXHF   =         0.00000000
  -V(xc)+E(xc)   XCENC  =      -563.87021019
  PAW double counting   =     18396.98700041   -17237.49543041
  entropy T*S    EENTRO =        -0.03505165
  eigenvalues    EBANDS =      -536.78458905
  atomic energy  EATOM  =     16228.71987288
  Solvation  Ediel_sol  =         0.00000000
  ---------------------------------------------------
  free energy    TOTEN  =      -104.36785208 eV

  energy without entropy =     -104.33280042  energy(sigma->0) =     -104.35616819


--------------------------------------------------------------------------------------------------------




--------------------------------------- Iteration      1(  10)  ---------------------------------------


    POTLOK:  cpu time    0.0191: real time    0.0196
    SETDIJ:  cpu time    0.0025: real time    0.0025
     EDDAV:  cpu time   11.3069: real time   11.3228
       DOS:  cpu time    0.0117: real time    0.0117
    CHARGE:  cpu time    0.4534: real time    0.4534
    MIXING:  cpu time    0.0012: real time    0.0012
    --------------------------------------------
      LOOP:  cpu time   11.7947: real time   11.8111

 eigenvalue-minimisations  : 13520
 total energy-change (2. order) : 0.1060589E+00  (-0.2598477E+01)
 number of electron     199.9999766 magnetization 
 augmentation part       85.1499783 magnetization 

 Broyden mixing:
  rms(total) = 0.18864E+01    rms(broyden)= 0.18861E+01
  rms(prec ) = 0.22394E+01
  weight for this iteration     100.00

 eigenvalues of (default mixing * dielectric matrix)
  average eigenvalue GAMMA=   0.5856
  1.6622  0.7400  0.1123  0.2067  0.2067

 Free energy of the ion-electron system (eV)
  ---------------------------------------------------
  alpha Z        PSCENC =       335.40302569
  Ewald energy   TEWEN  =    106938.88839235
  -Hartree energ DENC   =   -123715.29762170
  -exchange      EXHF   =         0.00000000
  -V(xc)+E(xc)   XCENC  =      -563.13263713
  PAW double counting   =     18598.13317019   -17437.01339363
  entropy T*S    EENTRO =        -0.28675592
  eigenvalues    EBANDS =      -489.67584595
  atomic energy  EATOM  =     16228.71987288
  Solvation  Ediel_sol  =         0.00000000
  ---------------------------------------------------
  free energy    TOTEN  =      -104.26179321 eV

  energy without entropy =     -103.97503730  energy(sigma->0) =     -104.16620791


--------------------------------------------------------------------------------------------------------




--------------------------------------- Iteration      1(  11)  ---------------------------------------


    POTLOK:  cpu time    0.0159: real time    0.0160
    SETDIJ:  cpu time    0.0024: real time    0.0024
     EDDAV:  cpu time   11.1331: real time   11.1388
       DOS:  cpu time    0.0117: real time    0.0117
    CHARGE:  cpu time    0.4509: real time    0.4510
    MIXING:  cpu time    0.0012: real time    0.0012
    --------------------------------------------
      LOOP:  cpu time   11.6152: real time   11.6211

 eigenvalue-minimisations  : 13272
 total energy-change (2. order) : 0.4422537E+01  (-0.6981581E+00)
 number of electron     199.9999770 magnetization 
 augmentation part       84.5862946 magnetization 

 Broyden mixing:
  rms(total) = 0.59540E+00    rms(broyden)= 0.59493E+00
  rms(prec ) = 0.69937E+00
  weight for this iteration     100.00

 eigenvalues of (default mixing * dielectric matrix)
  average eigenvalue GAMMA=   0.6049
  1.8442  0.6287  0.6287  0.1115  0.2081  0.2081

 Free energy of the ion-electron system (eV)
  ---------------------------------------------------
  alpha Z        PSCENC =       335.40302569
  Ewald energy   TEWEN  =    106938.88839235
  -Hartree energ DENC   =   -123760.06326653
  -exchange      EXHF   =         0.00000000
  -V(xc)+E(xc)   XCENC  =      -562.54635938
  PAW double counting   =     18708.68426247   -17545.56775175
  entropy T*S    EENTRO =        -0.28960305
  eigenvalues    EBANDS =      -443.06782925
  atomic energy  EATOM  =     16228.71987288
  Solvation  Ediel_sol  =         0.00000000
  ---------------------------------------------------
  free energy    TOTEN  =       -99.83925657 eV

  energy without entropy =      -99.54965352  energy(sigma->0) =      -99.74272222


--------------------------------------------------------------------------------------------------------




--------------------------------------- Iteration      1(  12)  ---------------------------------------


    POTLOK:  cpu time    0.0209: real time    0.0215
    SETDIJ:  cpu time    0.0025: real time    0.0025
     EDDAV:  cpu time   11.1874: real time   11.2009
       DOS:  cpu time    0.0115: real time    0.0115
    CHARGE:  cpu time    0.4548: real time    0.4548
    MIXING:  cpu time    0.0013: real time    0.0013
    --------------------------------------------
      LOOP:  cpu time   11.6783: real time   11.6924

 eigenvalue-minimisations  : 13272
 total energy-change (2. order) :-0.1851245E+00  (-0.3165233E+00)
 number of electron     199.9999771 magnetization 
 augmentation part       84.5991994 magnetization 

 Broyden mixing:
  rms(total) = 0.71585E+00    rms(broyden)= 0.71561E+00
  rms(prec ) = 0.77762E+00
  weight for this iteration     100.00

 eigenvalues of (default mixing * dielectric matrix)
  average eigenvalue GAMMA=   0.5846
  1.9099  0.6881  0.6881  0.1115  0.2938  0.2004  0.2004

 Free energy of the ion-electron system (eV)
  ---------------------------------------------------
  alpha Z        PSCENC =       335.40302569
  Ewald energy   TEWEN  =    106938.88839235
  -Hartree energ DENC   =   -123756.01538725
  -exchange      EXHF   =         0.00000000
  -V(xc)+E(xc)   XCENC  =      -562.51059143
  PAW double counting   =     18801.48157792   -17639.05635195
  entropy T*S    EENTRO =        -0.37815753
  eigenvalues    EBANDS =      -446.55676171
  atomic energy  EATOM  =     16228.71987288
  Solvation  Ediel_sol  =         0.00000000
  ---------------------------------------------------
  free energy    TOTEN  =      -100.02438103 eV

  energy without entropy =      -99.64622350  energy(sigma->0) =      -99.89832852


--------------------------------------------------------------------------------------------------------




--------------------------------------- Iteration      1(  13)  ---------------------------------------


    POTLOK:  cpu time    0.0166: real time    0.0168
    SETDIJ:  cpu time    0.0026: real time    0.0026
     EDDAV:  cpu time   11.1023: real time   11.1056
       DOS:  cpu time    0.0119: real time    0.0120
    CHARGE:  cpu time    0.4530: real time    0.4530
    MIXING:  cpu time    0.0013: real time    0.0013
    --------------------------------------------
      LOOP:  cpu time   11.5877: real time   11.5914

 eigenvalue-minimisations  : 13208
 total energy-change (2. order) : 0.3868787E+00  (-0.2109188E+00)
 number of electron     199.9999769 magnetization 
 augmentation part       84.5884933 magnetization 

 Broyden mixing:
  rms(total) = 0.35791E+00    rms(broyden)= 0.35769E+00
  rms(prec ) = 0.39242E+00
  weight for this iteration     100.00

 eigenvalues of (default mixing * dielectric matrix)
  average eigenvalue GAMMA=   0.6618
  2.1399  0.8931  0.8931  0.6265  0.1115  0.2072  0.2072  0.2160

 Free energy of the ion-electron system (eV)
  ---------------------------------------------------
  alpha Z        PSCENC =       335.40302569
  Ewald energy   TEWEN  =    106938.88839235
  -Hartree energ DENC   =   -123760.74944798
  -exchange      EXHF   =         0.00000000
  -V(xc)+E(xc)   XCENC  =      -562.50067387
  PAW double counting   =     18839.15195970   -17676.96913648
  entropy T*S    EENTRO =        -0.33049904
  eigenvalues    EBANDS =      -441.25099554
  atomic energy  EATOM  =     16228.71987288
  Solvation  Ediel_sol  =         0.00000000
  ---------------------------------------------------
  free energy    TOTEN  =       -99.63750229 eV

  energy without entropy =      -99.30700325  energy(sigma->0) =      -99.52733594


--------------------------------------------------------------------------------------------------------




--------------------------------------- Iteration      1(  14)  ---------------------------------------


    POTLOK:  cpu time    0.0165: real time    0.0167
    SETDIJ:  cpu time    0.0024: real time    0.0024
     EDDAV:  cpu time   11.3940: real time   11.3990
       DOS:  cpu time    0.0119: real time    0.0119
    CHARGE:  cpu time    0.4528: real time    0.4528
    MIXING:  cpu time    0.0014: real time    0.0014
    --------------------------------------------
      LOOP:  cpu time   11.8790: real time   11.8842

 eigenvalue-minimisations  : 13464
 total energy-change (2. order) :-0.1437429E+00  (-0.1081679E+00)
 number of electron     199.9999772 magnetization 
 augmentation part       84.6397793 magnetization 

 Broyden mixing:
  rms(total) = 0.42753E+00    rms(broyden)= 0.42740E+00
  rms(prec ) = 0.53032E+00
  weight for this iteration     100.00

 eigenvalues of (default mixing * dielectric matrix)
  average eigenvalue GAMMA=   0.6620
  2.2220  1.0439  1.0439  0.5796  0.3447  0.1115  0.2060  0.2060  0.2005

 Free energy of the ion-electron system (eV)
  ---------------------------------------------------
  alpha Z        PSCENC =       335.40302569
  Ewald energy   TEWEN  =    106938.88839235
  -Hartree energ DENC   =   -123772.42036553
  -exchange      EXHF   =         0.00000000
  -V(xc)+E(xc)   XCENC  =      -562.61678298
  PAW double counting   =     18882.70438674   -17721.61136783
  entropy T*S    EENTRO =        -0.35882609
  eigenvalues    EBANDS =      -428.48958044
  atomic energy  EATOM  =     16228.71987288
  Solvation  Ediel_sol  =         0.00000000
  ---------------------------------------------------
  free energy    TOTEN  =       -99.78124520 eV

  energy without entropy =      -99.42241911  energy(sigma->0) =      -99.66163651


--------------------------------------------------------------------------------------------------------




--------------------------------------- Iteration      1(  15)  ---------------------------------------


    POTLOK:  cpu time    0.0159: real time    0.0160
    SETDIJ:  cpu time    0.0026: real time    0.0026
     EDDAV:  cpu time   11.0434: real time   11.0550
       DOS:  cpu time    0.0116: real time    0.0116
    CHARGE:  cpu time    0.4536: real time    0.4536
    MIXING:  cpu time    0.0015: real time    0.0014
    --------------------------------------------
      LOOP:  cpu time   11.5284: real time   11.5401

 eigenvalue-minimisations  : 13144
 total energy-change (2. order) : 0.1082746E+00  (-0.4198949E-01)
 number of electron     199.9999770 magnetization 
 augmentation part       84.6855325 magnetization 

 Broyden mixing:
  rms(total) = 0.40353E+00    rms(broyden)= 0.40348E+00
  rms(prec ) = 0.50617E+00
  weight for this iteration     100.00

 eigenvalues of (default mixing * dielectric matrix)
  average eigenvalue GAMMA=   0.6845
  2.2132  1.2540  1.2540  0.5864  0.5864  0.1115  0.2095  0.2095  0.2277  0.1925

 Free energy of the ion-electron system (eV)
  ---------------------------------------------------
  alpha Z        PSCENC =       335.40302569
  Ewald energy   TEWEN  =    106938.88839235
  -Hartree energ DENC   =   -123770.42131699
  -exchange      EXHF   =         0.00000000
  -V(xc)+E(xc)   XCENC  =      -562.56694683
  PAW double counting   =     18878.27944121   -17717.07564153
  entropy T*S    EENTRO =        -0.29767427
  eigenvalues    EBANDS =      -430.60212309
  atomic energy  EATOM  =     16228.71987288
  Solvation  Ediel_sol  =         0.00000000
  ---------------------------------------------------
  free energy    TOTEN  =       -99.67297057 eV

  energy without entropy =      -99.37529630  energy(sigma->0) =      -99.57374582


--------------------------------------------------------------------------------------------------------




--------------------------------------- Iteration      1(  16)  ---------------------------------------


    POTLOK:  cpu time    0.0161: real time    0.0163
    SETDIJ:  cpu time    0.0025: real time    0.0025
     EDDAV:  cpu time   11.0613: real time   11.0648
       DOS:  cpu time    0.0116: real time    0.0116
    CHARGE:  cpu time    0.4540: real time    0.4540
    MIXING:  cpu time    0.0015: real time    0.0015
    --------------------------------------------
      LOOP:  cpu time   11.5470: real time   11.5507

 eigenvalue-minimisations  : 13096
 total energy-change (2. order) : 0.9964721E-01  (-0.2205809E-01)
 number of electron     199.9999771 magnetization 
 augmentation part       84.5984109 magnetization 

 Broyden mixing:
  rms(total) = 0.12133E+00    rms(broyden)= 0.12128E+00
  rms(prec ) = 0.14708E+00
  weight for this iteration     100.00

 eigenvalues of (default mixing * dielectric matrix)
  average eigenvalue GAMMA=   0.6819
  2.1416  1.4293  1.3345  0.6031  0.6031  0.4348  0.1115  0.2076  0.2076  0.2391
  0.1886

 Free energy of the ion-electron system (eV)
  ---------------------------------------------------
  alpha Z        PSCENC =       335.40302569
  Ewald energy   TEWEN  =    106938.88839235
  -Hartree energ DENC   =   -123785.39084625
  -exchange      EXHF   =         0.00000000
  -V(xc)+E(xc)   XCENC  =      -562.43495491
  PAW double counting   =     18854.83698567   -17692.91353584
  entropy T*S    EENTRO =        -0.36835574
  eigenvalues    EBANDS =      -416.31390722
  atomic energy  EATOM  =     16228.71987288
  Solvation  Ediel_sol  =         0.00000000
  ---------------------------------------------------
  free energy    TOTEN  =       -99.57332336 eV

  energy without entropy =      -99.20496762  energy(sigma->0) =      -99.45053812


--------------------------------------------------------------------------------------------------------




--------------------------------------- Iteration      1(  17)  ---------------------------------------


    POTLOK:  cpu time    0.0160: real time    0.0161
    SETDIJ:  cpu time    0.0024: real time    0.0024
     EDDAV:  cpu time   11.1523: real time   11.1590
       DOS:  cpu time    0.0118: real time    0.0118
    CHARGE:  cpu time    0.4562: real time    0.4606
    MIXING:  cpu time    0.0018: real time    0.0018
    --------------------------------------------
      LOOP:  cpu time   11.6405: real time   11.6517

 eigenvalue-minimisations  : 13328
 total energy-change (2. order) : 0.8276523E-02  (-0.3582925E-02)
 number of electron     199.9999771 magnetization 
 augmentation part       84.5664102 magnetization 

 Broyden mixing:
  rms(total) = 0.76387E-01    rms(broyden)= 0.76365E-01
  rms(prec ) = 0.88267E-01
  weight for this iteration     100.00

 eigenvalues of (default mixing * dielectric matrix)
  average eigenvalue GAMMA=   0.7262
  2.1796  2.1796  0.9816  0.8601  0.6443  0.6443  0.1115  0.2788  0.2081  0.2081
  0.2291  0.1890

 Free energy of the ion-electron system (eV)
  ---------------------------------------------------
  alpha Z        PSCENC =       335.40302569
  Ewald energy   TEWEN  =    106938.88839235
  -Hartree energ DENC   =   -123791.00465892
  -exchange      EXHF   =         0.00000000
  -V(xc)+E(xc)   XCENC  =      -562.38185769
  PAW double counting   =     18841.36675927   -17679.13475814
  entropy T*S    EENTRO =        -0.37397271
  eigenvalues    EBANDS =      -411.04784958
  atomic energy  EATOM  =     16228.71987288
  Solvation  Ediel_sol  =         0.00000000
  ---------------------------------------------------
  free energy    TOTEN  =       -99.56504684 eV

  energy without entropy =      -99.19107413  energy(sigma->0) =      -99.44038927


--------------------------------------------------------------------------------------------------------




--------------------------------------- Iteration      1(  18)  ---------------------------------------


    POTLOK:  cpu time    0.0181: real time    0.0184
    SETDIJ:  cpu time    0.0025: real time    0.0025
     EDDAV:  cpu time   11.3256: real time   11.3303
       DOS:  cpu time    0.0117: real time    0.0117
    CHARGE:  cpu time    0.4537: real time    0.4538
    MIXING:  cpu time    0.0019: real time    0.0020
    --------------------------------------------
      LOOP:  cpu time   11.8136: real time   11.8187

 eigenvalue-minimisations  : 13520
 total energy-change (2. order) : 0.2302002E-02  (-0.1585823E-02)
 number of electron     199.9999771 magnetization 
 augmentation part       84.5462938 magnetization 

 Broyden mixing:
  rms(total) = 0.73358E-01    rms(broyden)= 0.73350E-01
  rms(prec ) = 0.10560E+00
  weight for this iteration     100.00

 eigenvalues of (default mixing * dielectric matrix)
  average eigenvalue GAMMA=   0.7143
  2.2001  2.2001  1.0264  0.6925  0.6925  0.6297  0.6297  0.1115  0.2079  0.2079
  0.2658  0.2335  0.1887

 Free energy of the ion-electron system (eV)
  ---------------------------------------------------
  alpha Z        PSCENC =       335.40302569
  Ewald energy   TEWEN  =    106938.88839235
  -Hartree energ DENC   =   -123798.45015656
  -exchange      EXHF   =         0.00000000
  -V(xc)+E(xc)   XCENC  =      -562.33155895
  PAW double counting   =     18827.97230163   -17665.48165206
  entropy T*S    EENTRO =        -0.36639090
  eigenvalues    EBANDS =      -403.91657892
  atomic energy  EATOM  =     16228.71987288
  Solvation  Ediel_sol  =         0.00000000
  ---------------------------------------------------
[...]
    104       0.6206      0.47260
    105       0.6520      0.36751
    106       0.7165      0.18732
    107       1.6785     -0.00021
    108       1.8941     -0.00001
    109       2.0984     -0.00000
    110       2.1117     -0.00000
    111       2.6421     -0.00000
    112       3.9130     -0.00000
    113       3.9373     -0.00000
    114       4.1133     -0.00000
    115       4.1358     -0.00000
    116       4.5965     -0.00000
    117       5.4272     -0.00000
    118       5.4431     -0.00000
    119       5.4834     -0.00000
    120       5.9956     -0.00000

 k-point    52 :       0.1250   -0.4375    0.0000
  band No.  band energies     occupation 
      1      -4.5465      2.00000
      2      -4.5252      2.00000
      3      -4.1050      2.00000
      4      -4.0698      2.00000
      5      -3.9509      2.00000
      6      -3.8553      2.00000
      7      -3.7735      2.00000
      8      -3.7518      2.00000
      9      -3.7212      2.00000
     10      -3.7132      2.00000
     11      -3.6527      2.00000
     12      -3.6179      2.00000
     13      -3.5398      2.00000
     14      -3.5063      2.00000
     15      -3.4600      2.00000
     16      -3.4270      2.00000
     17      -3.3972      2.00000
     18      -3.3553      2.00000
     19      -3.3045      2.00000
     20      -3.2505      2.00000
     21      -3.2023      2.00000
     22      -3.1910      2.00000
     23      -3.1224      2.00000
     24      -3.0740      2.00000
     25      -3.0521      2.00000
     26      -3.0320      2.00000
     27      -2.9914      2.00000
     28      -2.9676      2.00000
     29      -2.9034      2.00000
     30      -2.8672      2.00000
     31      -2.8237      2.00000
     32      -2.7961      2.00000
     33      -2.7262      2.00000
     34      -2.6549      2.00000
     35      -2.6066      2.00000
     36      -2.5757      2.00000
     37      -2.5335      2.00000
     38      -2.4921      2.00000
     39      -2.4400      2.00000
     40      -2.4058      2.00000
     41      -2.2903      2.00000
     42      -2.2546      2.00000
     43      -2.1764      2.00000
     44      -2.1509      2.00000
     45      -2.1101      2.00000
     46      -2.0746      2.00000
     47      -2.0282      2.00000
     48      -1.9989      2.00000
     49      -1.9356      2.00000
     50      -1.8905      2.00000
     51      -1.8273      2.00000
     52      -1.7951      2.00000
     53      -1.7796      2.00000
     54      -1.7643      2.00000
     55      -1.6957      2.00000
     56      -1.6770      2.00000
     57      -1.6539      2.00000
     58      -1.6060      2.00000
     59      -1.5911      2.00000
     60      -1.5192      2.00000
     61      -1.5122      2.00000
     62      -1.4903      2.00000
     63      -1.4643      2.00000
     64      -1.4396      2.00000
     65      -1.3302      2.00000
     66      -1.2339      2.00000
     67      -1.1464      2.00000
     68      -1.1297      2.00000
     69      -1.1071      2.00000
     70      -1.0744      2.00000
     71      -1.0429      2.00000
     72      -1.0056      2.00000
     73      -0.9325      2.00001
     74      -0.9165      2.00001
     75      -0.8787      2.00001
     76      -0.8335      2.00003
     77      -0.8042      2.00005
     78      -0.7440      2.00012
     79      -0.7062      2.00020
     80      -0.6620      2.00037
     81      -0.6127      2.00070
     82      -0.5780      2.00107
     83      -0.5087      2.00239
     84      -0.4750      2.00346
     85      -0.4500      2.00449
     86      -0.4216      2.00597
     87      -0.3702      2.00969
     88      -0.3270      2.01410
     89      -0.2665      2.02263
     90      -0.2428      2.02677
     91      -0.1495      2.04663
     92      -0.1269      2.05186
     93      -0.0784      2.06229
     94       0.0258      2.06933
     95       0.0913      2.04868
     96       0.1202      2.02953
     97       0.2426      1.85270
     98       0.3440      1.56866
     99       0.3750      1.45883
    100       0.3804      1.43852
    101       0.4481      1.16925
    102       0.5039      0.93385
    103       0.5094      0.91099
    104       0.6433      0.39546
    105       0.6517      0.36851
    106       0.7085      0.20690
    107       1.6785     -0.00021
    108       1.8943     -0.00001
    109       2.0832     -0.00000
    110       2.1262     -0.00000
    111       2.6424     -0.00000
    112       3.9095     -0.00000
    113       3.9390     -0.00000
    114       4.0987     -0.00000
    115       4.1552     -0.00000
    116       4.5936     -0.00000
    117       5.4273     -0.00000
    118       5.4543     -0.00000
    119       5.4714     -0.00000
    120       5.9960     -0.00000


--------------------------------------------------------------------------------------------------------


 soft charge-density along one line, spin component           1
         0         1         2         3         4         5         6         7         8         9
 total charge-density along one line
 
 pseudopotential strength for first ion, spin component:           1
 -7.929   0.000   0.000  -0.003   0.000  -8.001   0.000   0.000
  0.000  -7.903   0.000  -0.000  -0.003   0.000  -7.976   0.000
  0.000   0.000  -7.904   0.000   0.000   0.000   0.000  -7.977
 -0.003  -0.000   0.000  -7.903   0.000  -0.003  -0.000   0.000
  0.000  -0.003   0.000   0.000  -7.929   0.000  -0.003   0.000
 -8.001   0.000   0.000  -0.003   0.000  -8.044   0.000   0.000
  0.000  -7.976   0.000  -0.000  -0.003   0.000  -8.021   0.000
  0.000   0.000  -7.977   0.000   0.000   0.000   0.000  -8.022
 -0.003  -0.000   0.000  -7.976   0.000  -0.003  -0.000   0.000
  0.000  -0.003   0.000   0.000  -8.001   0.000  -0.003   0.000
  0.000  -0.000  -0.008  -0.000   0.000   0.000  -0.000  -0.008
  0.000  -0.000  -0.014  -0.000   0.000   0.000  -0.000  -0.014
 -0.000   0.015   0.000  -0.000   0.000  -0.000   0.014   0.000
 -0.000  -0.000   0.018  -0.000  -0.000  -0.000  -0.000   0.017
 -0.000  -0.000   0.000   0.015  -0.000  -0.000  -0.000   0.000
 -0.000   0.018   0.000  -0.000   0.000  -0.000   0.017   0.000
 -0.000  -0.000   0.021  -0.001  -0.000  -0.000  -0.000   0.020
 -0.001  -0.000   0.000   0.018  -0.000  -0.001  -0.000   0.000
 total augmentation occupancy for first ion, spin component:           1
  3.758   0.002   0.005  -0.006   0.003  -1.837  -0.001  -0.004  -0.038  -0.002   0.001   0.001   0.000   0.001   0.029  -0.000
  0.002   3.576  -0.000   0.001  -0.008  -0.001  -1.465   0.000  -0.001  -0.036   0.002  -0.000   0.162   0.000   0.000  -0.003
  0.005  -0.000   3.838  -0.001   0.003  -0.004   0.000  -1.784   0.000  -0.002   0.579  -0.075   0.000   0.224   0.000   0.000
 -0.006   0.001  -0.001   3.577   0.002  -0.038  -0.001   0.000  -1.465  -0.001   0.003  -0.001   0.000   0.000   0.162  -0.000
  0.003  -0.008   0.003   0.002   3.755  -0.002  -0.036  -0.002  -0.001  -1.835   0.001   0.000   0.029   0.000   0.000  -0.002
 -1.837  -0.001  -0.004  -0.038  -0.002   1.849   0.001   0.003   0.074   0.001  -0.001  -0.000  -0.000  -0.001  -0.030   0.000
 -0.001  -1.465   0.000  -0.001  -0.036   0.001   1.321  -0.000   0.000   0.073  -0.001  -0.000  -0.162  -0.000  -0.000   0.011
 -0.004   0.000  -1.784   0.000  -0.002   0.003  -0.000   1.692  -0.000   0.002  -0.530   0.073  -0.000  -0.245  -0.000   0.000
 -0.038  -0.001   0.000  -1.465  -0.001   0.074   0.000  -0.000   1.322   0.001  -0.002  -0.000  -0.000  -0.000  -0.162   0.000
 -0.002  -0.036  -0.002  -0.001  -1.835   0.001   0.073   0.002   0.001   1.848  -0.001  -0.000  -0.030  -0.000  -0.000   0.002
  0.001   0.002   0.579   0.003   0.001  -0.001  -0.001  -0.530  -0.002  -0.001   2.212  -0.392   0.000  -0.163   0.001  -0.000
  0.001  -0.000  -0.075  -0.001   0.000  -0.000  -0.000   0.073  -0.000  -0.000  -0.392   0.077   0.000   0.044   0.000  -0.000
  0.000   0.162   0.000   0.000   0.029  -0.000  -0.162  -0.000  -0.000  -0.030   0.000   0.000   0.187   0.000  -0.000  -0.011
  0.001   0.000   0.224   0.000   0.000  -0.001  -0.000  -0.245  -0.000  -0.000  -0.163   0.044   0.000   0.110   0.000  -0.000
  0.029   0.000   0.000   0.162   0.000  -0.030  -0.000  -0.000  -0.162  -0.000   0.001   0.000  -0.000   0.000   0.187   0.000
 -0.000  -0.003   0.000  -0.000  -0.002   0.000   0.011   0.000   0.000   0.002  -0.000  -0.000  -0.011  -0.000   0.000   0.001
 -0.000  -0.000  -0.001  -0.000  -0.000   0.000   0.000   0.012   0.000   0.000   0.016  -0.004  -0.000  -0.007  -0.000  -0.000
 -0.002  -0.000   0.000  -0.003  -0.000   0.002   0.000   0.000   0.011   0.000  -0.000  -0.000   0.000  -0.000  -0.011  -0.000


------------------------ aborting loop because EDIFF is reached ----------------------------------------


 


 total charge     
 
# of ion       s       p       d       tot
------------------------------------------
    1        0.434   0.279   9.170   9.883
    2        0.456   0.328   8.476   9.260
    3        0.455   0.329   8.476   9.260
    4        0.455   0.329   8.477   9.261
    5        0.449   0.324   8.484   9.257
    6        0.471   0.450   8.441   9.362
    7        0.471   0.450   8.439   9.360
    8        0.471   0.450   8.436   9.357
    9        0.476   0.449   8.440   9.365
   10        0.471   0.442   8.450   9.362
   11        0.472   0.448   8.447   9.366
   12        0.476   0.449   8.439   9.364
   13        0.467   0.439   8.448   9.355
   14        0.464   0.434   8.465   9.362
   15        0.464   0.434   8.463   9.361
   16        0.465   0.432   8.468   9.365
   17        0.444   0.311   8.524   9.279
   18        0.445   0.310   8.519   9.274
   19        0.445   0.309   8.515   9.270
   20        0.425   0.406   7.297   8.128
--------------------------------------------------
tot          9.176   7.801 168.873 185.849
 
    CHARGE:  cpu time    0.4569: real time    0.4569
    FORLOC:  cpu time    0.0037: real time    0.0037
    FORNL :  cpu time    1.9182: real time    1.9191
    STRESS:  cpu time    5.7676: real time    5.7698
    FORCOR:  cpu time    0.0205: real time    0.0205
    FORHAR:  cpu time    0.0074: real time    0.0074
    MIXING:  cpu time    0.0038: real time    0.0038
    OFIELD:  cpu time    0.0000: real time    0.0000

  FORCE on cell =-STRESS in cart. coord.  units (eV):
  Direction    XX          YY          ZZ          XY          YZ          ZX
  --------------------------------------------------------------------------------------
  Alpha Z   335.40303   335.40303   335.40303
  Ewald  118057.09630118057.08926************     0.00610     0.00000     0.00000
  Hartree122214.70144122214.71517************    -0.01189    -0.02844    -0.04927
  E(xc)   -1041.42607 -1041.42923 -1045.75095     0.00274     0.00613     0.01062
  Local  ************************246364.51372     0.05139     0.11459     0.19848
  n-local   -90.50189   -85.90977  -105.09072     1.34111     0.22535    -0.06980
  augment  1480.18774  1480.21810  1500.66540    -0.02630    -0.05589    -0.09661
  Kinetic  2687.46989  2691.34514  2727.49946     1.06670     0.39697    -0.44737
  Fock        0.00000     0.00000     0.00000     0.00000     0.00000     0.00000
  -------------------------------------------------------------------------------------
  Total      -8.66371    -8.65750    -3.15417    -0.00538    -0.03175    -0.05499
  in kB     -17.74120   -17.72847    -6.45899    -0.01103    -0.06502    -0.11261
  external pressure =      -13.98 kB  Pullay stress =        0.00 kB


 VOLUME and BASIS-vectors are now :
 -----------------------------------------------------------------------------
  energy-cutoff  :      350.00
  volume of cell :      782.41
      direct lattice vectors                 reciprocal lattice vectors
     5.572001436  0.000000000  0.000000000     0.179468726 -0.103616317  0.000000000
     2.786000718  4.825494793  0.000000000     0.000000000  0.207232635  0.000000000
     0.000000000  0.000000000 29.099040242     0.000000000  0.000000000  0.034365395

  length of vectors
     5.572001436  5.572001436 29.099040242     0.207232635  0.207232635  0.034365395


 FORCES acting on ions
    electron-ion (+dipol)            ewald-force                    non-local-force                 convergence-correction
 -----------------------------------------------------------------------------------------------
   0.545E-01 0.315E-01 -.358E+04   0.113E-11 0.711E-12 0.358E+04   -.454E-01 -.262E-01 0.246E+01   0.137E-03 0.792E-04 -.559E-03
   -.493E+01 -.285E+01 0.326E+04   0.516E+01 0.298E+01 -.325E+04   -.101E+00 -.583E-01 -.262E+01   -.524E-03 -.302E-03 0.203E-03
   0.493E+01 -.286E+01 0.326E+04   -.516E+01 0.298E+01 -.325E+04   0.105E+00 -.515E-01 -.261E+01   0.519E-03 -.329E-03 0.255E-03
   -.919E-02 0.570E+01 0.326E+04   0.721E-03 -.596E+01 -.325E+04   0.798E-02 0.117E+00 -.261E+01   -.251E-04 0.614E-03 0.255E-03
   0.115E-01 0.662E-02 0.326E+04   -.721E-03 -.416E-03 -.326E+04   -.952E-02 -.550E-02 -.246E+01   0.261E-04 0.151E-04 0.633E-03
   0.964E-02 -.896E-02 0.166E+04   -.801E-13 -.641E-13 -.166E+04   0.601E-02 0.141E-01 -.717E-01   0.711E-04 0.359E-03 0.193E-01
   -.710E-02 -.410E-02 0.166E+04   -.581E-13 -.534E-13 -.166E+04   -.521E-02 -.301E-02 -.594E-01   -.733E-04 -.423E-04 0.196E-01
   -.294E-02 0.128E-01 0.166E+04   -.642E-13 -.357E-13 -.166E+04   0.152E-01 -.182E-02 -.717E-01   0.346E-03 -.118E-03 0.193E-01
   0.281E+00 -.593E+01 0.526E+02   -.269E+00 0.612E+01 -.528E+02   -.184E-01 -.483E-01 -.295E-03   0.127E-03 -.483E-03 0.303E-01
   -.281E+00 -.162E+00 0.475E+02   0.269E+00 0.156E+00 -.474E+02   0.148E-01 0.853E-02 -.101E+00   -.126E-03 -.725E-04 0.299E-01
   0.499E+01 0.288E+01 0.520E+02   -.516E+01 -.298E+01 -.525E+02   0.558E-01 0.322E-01 0.955E-01   0.351E-03 0.203E-03 0.303E-01
   -.499E+01 0.321E+01 0.526E+02   0.516E+01 -.329E+01 -.528E+02   -.510E-01 0.817E-02 -.295E-03   -.355E-03 0.352E-03 0.303E-01
   -.277E+00 -.160E+00 -.159E+04   0.272E+00 0.157E+00 0.159E+04   -.452E-02 -.261E-02 0.122E+00   0.333E-05 0.192E-05 0.201E-01
   0.277E+00 -.588E+01 -.159E+04   -.272E+00 0.607E+01 0.159E+04   0.434E-02 -.998E-01 0.241E+00   -.237E-05 0.306E-03 0.197E-01
   -.495E+01 0.318E+01 -.159E+04   0.512E+01 -.327E+01 0.159E+04   -.843E-01 0.537E-01 0.241E+00   0.264E-03 -.155E-03 0.197E-01
   0.495E+01 0.286E+01 -.159E+04   -.512E+01 -.296E+01 0.159E+04   0.859E-01 0.496E-01 0.259E+00   -.265E-03 -.153E-03 0.197E-01
   -.447E-01 -.159E-01 -.325E+04   0.105E-11 0.636E-12 0.325E+04   0.272E-01 0.468E-01 0.261E+01   -.119E-03 -.614E-04 -.329E-03
   0.343E-01 0.198E-01 -.325E+04   0.105E-11 0.635E-12 0.325E+04   -.516E-01 -.298E-01 0.261E+01   0.114E-03 0.656E-04 -.468E-03
   -.361E-01 -.308E-01 -.325E+04   0.108E-11 0.647E-12 0.325E+04   0.541E-01 0.146E-03 0.261E+01   -.113E-03 -.724E-04 -.329E-03
   0.103E-01 0.596E-02 0.149E+04   -.556E-13 0.500E-13 -.149E+04   -.223E-01 -.129E-01 -.162E+00   -.306E-03 -.176E-03 0.175E-01
 -----------------------------------------------------------------------------------------------
   0.168E-01 0.967E-02 -.792E+00   0.153E-12 -.222E-13 -.455E-12   -.168E-01 -.970E-02 0.475E+00   0.512E-04 0.295E-04 0.275E+00
 
 
 POSITION                                       TOTAL-FORCE (eV/Angst)
 -----------------------------------------------------------------------------------
      2.78600      0.00000     19.10025         0.009276      0.005356      0.539237
      5.57200      1.60850     10.00000         0.129803      0.074942      0.127718
      2.78600      1.60850     10.00000        -0.128308      0.073493      0.122907
      6.96500      4.02125     10.00000        -0.000508     -0.147865      0.122907
      4.17900      4.02125     10.00000         0.001243      0.000718     -0.024702
      0.00000      0.00000     12.27476         0.015725      0.005455      0.079997
      2.78600      0.00000     12.27476        -0.012387     -0.007151      0.084705
      4.17900      2.41275     12.27476         0.012587      0.010891      0.079997
      1.39300      0.80425     14.54918        -0.006283      0.141503     -0.162320
      4.17900      0.80425     14.54918         0.003260      0.001882      0.021398
      2.78600      3.21700     14.54918        -0.113892     -0.065756     -0.333423
      5.57200      3.21700     14.54918         0.119404     -0.076192     -0.162320
      5.57200      1.60850     16.81912        -0.009870     -0.005699      0.045278
      2.78600      1.60850     16.81912         0.009377      0.091887     -0.101250
      6.96500      4.02125     16.81912         0.084265     -0.037823     -0.101250
      4.17900      4.02125     16.81912        -0.084362     -0.048706     -0.168318
      0.00000      0.00000     19.10025        -0.017642      0.030801     -0.063716
      1.39300      2.41275     19.10025        -0.017228     -0.009946     -0.070940
      4.17900      2.41275     19.10025         0.017853     -0.030679     -0.063716
      1.39300      2.41275     12.27476        -0.012314     -0.007110      0.027812
 -----------------------------------------------------------------------------------
    total drift:                                0.000009      0.000005     -0.042286


--------------------------------------------------------------------------------------------------------



  FREE ENERGIE OF THE ION-ELECTRON SYSTEM (eV)
  ---------------------------------------------------
  free  energy   TOTEN  =       -99.55983999 eV

  energy  without entropy=      -99.18562428  energy(sigma->0) =      -99.43510142
 


--------------------------------------------------------------------------------------------------------


    POTLOK:  cpu time    0.0193: real time    0.0193


--------------------------------------------------------------------------------------------------------


     LOOP+:  cpu time  394.7765: real time  395.2462
    4ORBIT:  cpu time    0.0000: real time    0.0000
 


 total charge     
 
# of ion       s       p       d       tot
------------------------------------------
    1        0.434   0.279   9.170   9.883
    2        0.456   0.328   8.476   9.260
    3        0.455   0.329   8.476   9.260
    4        0.455   0.329   8.477   9.261
    5        0.449   0.324   8.484   9.257
    6        0.471   0.450   8.441   9.362
    7        0.471   0.450   8.439   9.360
    8        0.471   0.450   8.436   9.357
    9        0.476   0.449   8.440   9.365
   10        0.471   0.442   8.450   9.362
   11        0.472   0.448   8.447   9.366
   12        0.476   0.449   8.439   9.364
   13        0.467   0.439   8.448   9.355
   14        0.464   0.434   8.465   9.362
   15        0.464   0.434   8.463   9.361
   16        0.465   0.432   8.468   9.365
   17        0.444   0.311   8.524   9.279
   18        0.445   0.310   8.519   9.274
   19        0.445   0.309   8.515   9.270
   20        0.425   0.406   7.297   8.128
--------------------------------------------------
tot          9.176   7.801 168.873 185.849
 

 total amount of memory used by VASP MPI-rank0    79318. kBytes
=======================================================================

   base      :      30000. kBytes
   nonlr-proj:       1753. kBytes
   fftplans  :       1543. kBytes
   grid      :       2646. kBytes
   one-center:         46. kBytes
   wavefun   :      43330. kBytes
 
  
  
 General timing and accounting informations for this job:
 ========================================================
  
                  Total CPU time used (sec):      402.624
                            User time (sec):      358.164
                          System time (sec):       44.459
                         Elapsed time (sec):      403.416
  
                   Maximum memory used (kb):      119700.
                   Average memory used (kb):           0.
  
                          Minor page faults:        58244
                          Major page faults:            0
                 Voluntary context switches:          587
