       N       E                     dE             d eps       ncg     rms          rms(c)
DAV:   1     0.977385081617E+03    0.97739E+03   -0.56619E+04 10032   0.103E+03
DAV:   2    -0.181155498913E+02   -0.99550E+03   -0.91395E+03 12256   0.261E+02
DAV:   3    -0.949403109967E+02   -0.76825E+02   -0.69194E+02 11904   0.706E+01
DAV:   4    -0.982498676207E+02   -0.33096E+01   -0.31657E+01 13528   0.153E+01
DAV:   5    -0.983348346206E+02   -0.84967E-01   -0.84618E-01 12960   0.240E+00    0.429E+01
DAV:   6    -0.947597770600E+02    0.35751E+01   -0.19848E+01 11360   0.197E+01    0.324E+01
DAV:   7    -0.137994064227E+03   -0.43234E+02   -0.12675E+02 15200   0.760E+01    0.551E+01
DAV:   8    -0.118552017669E+03    0.19442E+02   -0.51028E+01 14312   0.455E+01    0.433E+01
DAV:   9    -0.107389230692E+03    0.11163E+02   -0.43657E+01 16400   0.444E+01    0.295E+01
DAV:  10    -0.936579566666E+02    0.13731E+02   -0.24996E+01 13344   0.319E+01    0.129E+01
DAV:  11    -0.922807614446E+02    0.13772E+01   -0.95944E+00 14656   0.163E+01    0.742E+00
DAV:  12    -0.922265815054E+02    0.54180E-01   -0.87715E-01 12136   0.418E+00    0.558E+00
DAV:  13    -0.921644327611E+02    0.62149E-01   -0.88539E-01 12136   0.454E+00    0.401E+00
DAV:  14    -0.921813197220E+02   -0.16887E-01   -0.16682E-01 13328   0.194E+00    0.376E+00
DAV:  15    -0.920931086364E+02    0.88211E-01   -0.13085E-01 14040   0.181E+00    0.175E+00
DAV:  16    -0.920903493057E+02    0.27593E-02   -0.83758E-02 11872   0.138E+00    0.107E+00
DAV:  17    -0.920811694917E+02    0.91798E-02   -0.27217E-02 11504   0.858E-01    0.531E-01
DAV:  18    -0.920807062754E+02    0.46322E-03   -0.34133E-03 11024   0.316E-01    0.459E-01
DAV:  19    -0.920789725123E+02    0.17338E-02   -0.50264E-03 12704   0.343E-01    0.280E-01
DAV:  20    -0.920793421856E+02   -0.36967E-03   -0.22615E-03 12720   0.243E-01    0.297E-01
DAV:  21    -0.920787735152E+02    0.56867E-03   -0.60889E-04 12368   0.119E-01    0.183E-01
DAV:  22    -0.920785720651E+02    0.20145E-03   -0.28718E-04 11336   0.698E-02    0.103E-01
DAV:  23    -0.920785198330E+02    0.52232E-04   -0.24767E-04 12208   0.663E-02    0.438E-02
DAV:  24    -0.920785317290E+02   -0.11896E-04   -0.23742E-05  6104   0.241E-02    0.301E-02
DAV:  25    -0.920785539520E+02   -0.22223E-04   -0.15073E-05  6232   0.186E-02    0.349E-02
DAV:  26    -0.920785758249E+02   -0.21873E-04   -0.10354E-05  6000   0.159E-02    0.195E-02
DAV:  27    -0.920786000798E+02   -0.24255E-04   -0.52749E-06  6048   0.882E-03    0.112E-02
DAV:  28    -0.920786163818E+02   -0.16302E-04   -0.18964E-06  5832   0.544E-03    0.664E-03
DAV:  29    -0.920786407552E+02   -0.24373E-04   -0.18095E-06  6016   0.485E-03    0.391E-03
DAV:  30    -0.920786707365E+02   -0.29981E-04   -0.29858E-06  6248   0.556E-03    0.632E-03
DAV:  31    -0.920786823900E+02   -0.11653E-04   -0.99856E-07  6064   0.367E-03    0.455E-03
DAV:  32    -0.920786886169E+02   -0.62269E-05   -0.69117E-07  5816   0.235E-03
   1 F= -.92078663E+02 E0= -.92066084E+02  d E =-.377348E-01
