       N       E                     dE             d eps       ncg     rms          rms(c)
DAV:   1     0.102854518095E+04    0.10285E+04   -0.58318E+04 19288   0.103E+03
DAV:   2    -0.308098151781E+02   -0.10594E+04   -0.98644E+03 24160   0.259E+02
DAV:   3    -0.121352270993E+03   -0.90542E+02   -0.83765E+02 22864   0.754E+01
DAV:   4    -0.125748003963E+03   -0.43957E+01   -0.41945E+01 25432   0.169E+01
DAV:   5    -0.125888663012E+03   -0.14066E+00   -0.13938E+00 26588   0.297E+00    0.431E+01
DAV:   6    -0.118331664398E+03    0.75570E+01   -0.37539E+01 23036   0.250E+01    0.322E+01
DAV:   7    -0.136863030927E+03   -0.18531E+02   -0.79102E+01 25032   0.520E+01    0.423E+01
DAV:   8    -0.117093422753E+03    0.19770E+02   -0.42938E+01 27004   0.372E+01    0.123E+01
DAV:   9    -0.118990802730E+03   -0.18974E+01   -0.27593E+01 22552   0.268E+01    0.187E+01
DAV:  10    -0.124186957360E+03   -0.51962E+01   -0.33462E+01 26584   0.289E+01    0.267E+01
DAV:  11    -0.116263727798E+03    0.79232E+01   -0.26339E+01 30588   0.248E+01    0.905E+00
DAV:  12    -0.115672228510E+03    0.59150E+00   -0.25492E+00 27316   0.610E+00    0.388E+00
DAV:  13    -0.115623438107E+03    0.48790E-01   -0.47291E-01 27932   0.314E+00    0.346E+00
DAV:  14    -0.115580462778E+03    0.42975E-01   -0.27107E-01 27452   0.209E+00    0.223E+00
DAV:  15    -0.115554042917E+03    0.26420E-01   -0.15432E-01 24376   0.163E+00    0.128E+00
DAV:  16    -0.115548723350E+03    0.53196E-02   -0.58628E-02 21968   0.109E+00    0.888E-01
DAV:  17    -0.115547180054E+03    0.15433E-02   -0.27158E-02 21752   0.741E-01    0.813E-01
DAV:  18    -0.115543900233E+03    0.32798E-02   -0.18147E-02 21220   0.640E-01    0.453E-01
DAV:  19    -0.115542842741E+03    0.10575E-02   -0.29183E-03 21944   0.231E-01    0.311E-01
DAV:  20    -0.115541799501E+03    0.10432E-02   -0.17905E-03 21536   0.184E-01    0.146E-01
DAV:  21    -0.115541791488E+03    0.80124E-05   -0.45025E-04 23184   0.894E-02    0.104E-01
DAV:  22    -0.115541817909E+03   -0.26421E-04   -0.18290E-04 21904   0.637E-02    0.980E-02
DAV:  23    -0.115541849169E+03   -0.31260E-04   -0.17189E-04 21436   0.659E-02    0.755E-02
DAV:  24    -0.115541982064E+03   -0.13290E-03   -0.18947E-04 22512   0.602E-02    0.405E-02
DAV:  25    -0.115542057793E+03   -0.75729E-04   -0.51624E-05 16080   0.309E-02    0.245E-02
DAV:  26    -0.115542183159E+03   -0.12537E-03   -0.36812E-05 14296   0.260E-02    0.182E-02
DAV:  27    -0.115542323021E+03   -0.13986E-03   -0.43793E-05 16260   0.222E-02    0.254E-02
DAV:  28    -0.115542485748E+03   -0.16273E-03   -0.28621E-05 14428   0.206E-02    0.194E-02
DAV:  29    -0.115542548274E+03   -0.62526E-04   -0.68195E-06 12320   0.103E-02    0.189E-02
DAV:  30    -0.115542672254E+03   -0.12398E-03   -0.70694E-06 12376   0.120E-02    0.128E-02
DAV:  31    -0.115542752288E+03   -0.80034E-04   -0.51961E-06 12400   0.914E-03    0.907E-03
DAV:  32    -0.115542789569E+03   -0.37281E-04   -0.25061E-06 12296   0.660E-03    0.384E-03
DAV:  33    -0.115542831844E+03   -0.42276E-04   -0.20342E-06 12228   0.532E-03    0.239E-03
DAV:  34    -0.115542854847E+03   -0.23002E-04   -0.86320E-07 12012   0.320E-03    0.289E-03
DAV:  35    -0.115542861816E+03   -0.69696E-05   -0.28638E-07 10924   0.198E-03
   1 F= -.11553671E+03 E0= -.11552830E+03  d E =-.252371E-01
