       N       E                     dE             d eps       ncg     rms          rms(c)
DAV:   1     0.103093135997E+04    0.10309E+04   -0.58325E+04 19296   0.103E+03
DAV:   2    -0.273838834070E+02   -0.10583E+04   -0.98369E+03 23888   0.260E+02
DAV:   3    -0.119336929132E+03   -0.91953E+02   -0.85037E+02 22936   0.759E+01
DAV:   4    -0.123913945600E+03   -0.45770E+01   -0.43460E+01 25856   0.171E+01
DAV:   5    -0.124056230385E+03   -0.14228E+00   -0.14087E+00 26008   0.298E+00    0.433E+01
DAV:   6    -0.117795140586E+03    0.62611E+01   -0.33458E+01 22856   0.239E+01    0.327E+01
DAV:   7    -0.146067990384E+03   -0.28273E+02   -0.13564E+02 25376   0.648E+01    0.475E+01
DAV:   8    -0.133191476158E+03    0.12877E+02   -0.64581E+01 26568   0.484E+01    0.365E+01
DAV:   9    -0.125144687940E+03    0.80468E+01   -0.65618E+01 30760   0.491E+01    0.254E+01
DAV:  10    -0.122708696953E+03    0.24360E+01   -0.49849E+01 27504   0.377E+01    0.263E+01
DAV:  11    -0.115856211393E+03    0.68525E+01   -0.12978E+01 28816   0.202E+01    0.966E+00
DAV:  12    -0.116215133877E+03   -0.35892E+00   -0.92935E+00 28540   0.153E+01    0.116E+01
DAV:  13    -0.114927495340E+03    0.12876E+01   -0.39398E+00 21904   0.838E+00    0.386E+00
DAV:  14    -0.114920193173E+03    0.73022E-02   -0.52564E-01 25928   0.332E+00    0.312E+00
DAV:  15    -0.114887414308E+03    0.32779E-01   -0.20522E-01 22000   0.213E+00    0.230E+00
DAV:  16    -0.114868454344E+03    0.18960E-01   -0.11287E-01 24448   0.154E+00    0.143E+00
DAV:  17    -0.114854026650E+03    0.14428E-01   -0.45852E-02 27120   0.991E-01    0.663E-01
DAV:  18    -0.114851295921E+03    0.27307E-02   -0.37237E-02 22936   0.843E-01    0.846E-01
DAV:  19    -0.114848109614E+03    0.31863E-02   -0.95247E-03 22644   0.423E-01    0.411E-01
DAV:  20    -0.114847596279E+03    0.51334E-03   -0.51474E-03 23496   0.326E-01    0.306E-01
DAV:  21    -0.114846800221E+03    0.79606E-03   -0.17087E-03 26376   0.180E-01    0.238E-01
DAV:  22    -0.114846079125E+03    0.72110E-03   -0.20818E-03 24936   0.170E-01    0.146E-01
DAV:  23    -0.114846017571E+03    0.61553E-04   -0.39280E-04 23636   0.820E-02    0.105E-01
DAV:  24    -0.114846124624E+03   -0.10705E-03   -0.30077E-04 22184   0.737E-02    0.737E-02
DAV:  25    -0.114846350630E+03   -0.22601E-03   -0.34381E-04 22316   0.825E-02    0.447E-02
DAV:  26    -0.114846585714E+03   -0.23508E-03   -0.15576E-04 21728   0.449E-02    0.623E-02
DAV:  27    -0.114846624687E+03   -0.38973E-04   -0.23429E-05 13184   0.232E-02    0.485E-02
DAV:  28    -0.114846724429E+03   -0.99742E-04   -0.25716E-05 12468   0.245E-02    0.329E-02
DAV:  29    -0.114846842451E+03   -0.11802E-03   -0.24166E-05 13040   0.189E-02    0.255E-02
DAV:  30    -0.114847036154E+03   -0.19370E-03   -0.40990E-05 13976   0.222E-02    0.259E-02
DAV:  31    -0.114847124130E+03   -0.87976E-04   -0.91914E-06 12568   0.111E-02    0.157E-02
DAV:  32    -0.114847183459E+03   -0.59328E-04   -0.62899E-06 12548   0.905E-03    0.815E-03
DAV:  33    -0.114847223698E+03   -0.40239E-04   -0.23295E-06 12416   0.594E-03    0.375E-03
DAV:  34    -0.114847272409E+03   -0.48711E-04   -0.39127E-06 12700   0.663E-03    0.807E-03
DAV:  35    -0.114847284101E+03   -0.11691E-04   -0.15976E-06 12104   0.514E-03    0.399E-03
DAV:  36    -0.114847294659E+03   -0.10559E-04   -0.66431E-07 11624   0.267E-03    0.238E-03
DAV:  37    -0.114847305476E+03   -0.10817E-04   -0.34592E-07 11764   0.202E-03    0.207E-03
DAV:  38    -0.114847314328E+03   -0.88523E-05   -0.26130E-07 11868   0.155E-03
   1 F= -.11482963E+03 E0= -.11482199E+03  d E =-.229314E-01
