       N       E                     dE             d eps       ncg     rms          rms(c)
DAV:   1     0.116562539373E+04    0.11656E+04   -0.79799E+04 13512   0.105E+03
DAV:   2    -0.491519029431E+02   -0.12148E+04   -0.11431E+04 15224   0.272E+02
DAV:   3    -0.120231868815E+03   -0.71080E+02   -0.64985E+02 15080   0.607E+01
DAV:   4    -0.122518568579E+03   -0.22867E+01   -0.22443E+01 15760   0.114E+01
DAV:   5    -0.122603914856E+03   -0.85346E-01   -0.85295E-01 15720   0.208E+00    0.309E+01
DAV:   6    -0.124835505290E+03   -0.22316E+01   -0.40949E+01 14920   0.284E+01    0.302E+01
DAV:   7    -0.159419406799E+03   -0.34584E+02   -0.79060E+01 17024   0.813E+01    0.499E+01
DAV:   8    -0.136461411837E+03    0.22958E+02   -0.68375E+01 16608   0.422E+01    0.351E+01
DAV:   9    -0.123273549514E+03    0.13188E+02   -0.27758E+01 15080   0.329E+01    0.208E+01
DAV:  10    -0.119835767649E+03    0.34378E+01   -0.12995E+01 14400   0.267E+01    0.139E+01
DAV:  11    -0.117601560999E+03    0.22342E+01   -0.12937E+01 14152   0.188E+01    0.111E+01
DAV:  12    -0.116406447077E+03    0.11951E+01   -0.60205E+00 14432   0.132E+01    0.763E+00
DAV:  13    -0.116320591105E+03    0.85856E-01   -0.21076E+00 13976   0.677E+00    0.492E+00
DAV:  14    -0.116219307509E+03    0.10128E+00   -0.11869E+00 14384   0.549E+00    0.435E+00
DAV:  15    -0.116163694040E+03    0.55613E-01   -0.14937E-01 13792   0.207E+00    0.307E+00
DAV:  16    -0.116242536809E+03   -0.78843E-01   -0.32134E-01 14328   0.313E+00    0.417E+00
DAV:  17    -0.116124177168E+03    0.11836E+00   -0.32092E-01 13760   0.276E+00    0.162E+00
DAV:  18    -0.116109258979E+03    0.14918E-01   -0.54791E-02 13672   0.136E+00    0.850E-01
DAV:  19    -0.116105902040E+03    0.33569E-02   -0.15045E-02 13656   0.653E-01    0.453E-01
DAV:  20    -0.116104788522E+03    0.11135E-02   -0.41590E-03 14264   0.378E-01    0.340E-01
DAV:  21    -0.116104606693E+03    0.18183E-03   -0.13740E-03 14024   0.198E-01    0.344E-01
DAV:  22    -0.116104070493E+03    0.53620E-03   -0.28340E-03 14392   0.254E-01    0.202E-01
DAV:  23    -0.116103897291E+03    0.17320E-03   -0.11396E-03 14008   0.192E-01    0.115E-01
DAV:  24    -0.116103857775E+03    0.39516E-04   -0.44534E-04 13976   0.110E-01    0.730E-02
DAV:  25    -0.116103852510E+03    0.52650E-05   -0.12623E-04 13264   0.615E-02    0.442E-02
DAV:  26    -0.116103945387E+03   -0.92877E-04   -0.11329E-04 11536   0.528E-02    0.486E-02
DAV:  27    -0.116104058265E+03   -0.11288E-03   -0.35245E-05  9336   0.309E-02    0.361E-02
DAV:  28    -0.116104170573E+03   -0.11231E-03   -0.34084E-05  8120   0.274E-02    0.158E-02
DAV:  29    -0.116104414081E+03   -0.24351E-03   -0.23195E-05  9784   0.202E-02    0.126E-02
DAV:  30    -0.116104588093E+03   -0.17401E-03   -0.14738E-05  9312   0.165E-02    0.126E-02
DAV:  31    -0.116104677764E+03   -0.89671E-04   -0.57828E-06  8352   0.850E-03    0.872E-03
DAV:  32    -0.116104745663E+03   -0.67899E-04   -0.46609E-06  8224   0.816E-03    0.112E-02
DAV:  33    -0.116104778772E+03   -0.33109E-04   -0.19654E-06  8176   0.540E-03    0.847E-03
DAV:  34    -0.116104790443E+03   -0.11671E-04   -0.11840E-06  8288   0.432E-03    0.384E-03
DAV:  35    -0.116104807466E+03   -0.17024E-04   -0.55502E-07  7840   0.226E-03    0.246E-03
DAV:  36    -0.116104821011E+03   -0.13544E-04   -0.40606E-07  8096   0.180E-03    0.144E-03
DAV:  37    -0.116104826807E+03   -0.57957E-05   -0.25195E-07  8144   0.158E-03
   1 F= -.11610483E+03 E0= -.11600036E+03  d E =-.313408E+00
