 vasp.5.4.4.18Apr17-6-g9f103f2a35 (build Apr 28 2017 10:53:45) complex          
  
 executed on             LinuxIFC date 2019.05.31  17:26:06
 running on   28 total cores
 distrk:  each k-point on   28 cores,    1 groups
 distr:  one band on NCORES_PER_BAND=   7 cores,    4 groups


--------------------------------------------------------------------------------------------------------


 INCAR:
 POTCAR:    PAW_PBE Ag 02Apr2005                  
 POTCAR:    PAW_PBE C 08Apr2002                   
 POTCAR:    PAW_PBE O 08Apr2002                   
 POTCAR:    PAW_PBE Pd 04Jan2005                  
 POTCAR:    PAW_PBE Rh 04Feb2005                  
 POTCAR:    PAW_PBE Ag 02Apr2005                  
   VRHFIN =Ag : s1 d10                                                          
   LEXCH  = PE                                                                  
   EATOM  =  1037.2675 eV,   76.2370 Ry                                         
                                                                                
   TITEL  = PAW_PBE Ag 02Apr2005                                                
   LULTRA =        F    use ultrasoft PP ?                                      
   IUNSCR =        1    unscreen: 0-lin 1-nonlin 2-no                           
   RPACOR =    2.000    partial core radius                                     
   POMASS =  107.868; ZVAL   =   11.000    mass and valenz                      
   RCORE  =    2.500    outmost cutoff radius                                   
   RWIGS  =    2.840; RWIGS  =    1.503    wigner-seitz radius (au A)           
   ENMAX  =  249.844; ENMIN  =  187.383 eV                                      
   ICORE  =        3    local potential                                         
   LCOR   =        T    correct aug charges                                     
   LPAW   =        T    paw PP                                                  
   EAUG   =  412.496                                                            
   DEXC   =    0.000                                                            
   RMAX   =    2.560    core radius for proj-oper                               
   RAUG   =    1.300    factor for augmentation sphere                          
   RDEP   =    2.576    radius for radial grids                                 
   RDEPT  =    2.072    core radius for aug-charge                              
                                                                                
   Atomic configuration                                                         
   12 entries                                                                   
     n  l   j            E        occ.                                          
     1  0  0.50    -25324.9161   2.0000                                         
     2  0  0.50     -3728.5341   2.0000                                         
     2  1  1.50     -3344.0404   6.0000                                         
     3  0  0.50      -683.5581   2.0000                                         
     3  1  1.50      -557.3225   6.0000                                         
     3  2  2.50      -358.3853  10.0000                                         
     4  0  0.50       -95.0341   2.0000                                         
     4  1  1.50       -58.5511   6.0000                                         
     4  2  2.50        -7.4440  10.0000                                         
     5  0  0.50        -4.4045   1.0000                                         
     5  1  0.50        -1.3606   0.0000                                         
     4  3  2.50        -1.3606   0.0000                                         
   Description                                                                  
     l       E           TYP  RCUT    TYP  RCUT                                 
     2     -7.4439781     23  2.400                                             
     2     -8.8045607     23  2.400                                             
     0     -4.4044681     23  2.400                                             
     0      1.9520038     23  2.400                                             
     1     -1.3605826     23  2.500                                             
     1     27.2116520     23  2.500                                             
     3     -4.0817478     23  2.400                                             
  local pseudopotential read in
  partial core-charges read in
  partial kinetic energy density read in
  atomic valenz-charges read in
  non local Contribution for L=           2  read in
    real space projection operators read in
  non local Contribution for L=           2  read in
    real space projection operators read in
  non local Contribution for L=           0  read in
    real space projection operators read in
  non local Contribution for L=           0  read in
    real space projection operators read in
  non local Contribution for L=           1  read in
    real space projection operators read in
  non local Contribution for L=           1  read in
    real space projection operators read in
    PAW grid and wavefunctions read in
 
   number of l-projection  operators is LMAX  =           6
   number of lm-projection operators is LMMAX =          18
 
 POTCAR:    PAW_PBE C 08Apr2002                   
   VRHFIN =C: s2p2                                                              
   LEXCH  = PE                                                                  
   EATOM  =   147.1560 eV,   10.8157 Ry                                         
                                                                                
   TITEL  = PAW_PBE C 08Apr2002                                                 
   LULTRA =        F    use ultrasoft PP ?                                      
   IUNSCR =        1    unscreen: 0-lin 1-nonlin 2-no                           
   RPACOR =    1.200    partial core radius                                     
   POMASS =   12.011; ZVAL   =    4.000    mass and valenz                      
   RCORE  =    1.500    outmost cutoff radius                                   
   RWIGS  =    1.630; RWIGS  =    0.863    wigner-seitz radius (au A)           
   ENMAX  =  400.000; ENMIN  =  300.000 eV                                      
   ICORE  =        2    local potential                                         
   LCOR   =        T    correct aug charges                                     
   LPAW   =        T    paw PP                                                  
   EAUG   =  644.873                                                            
   DEXC   =    0.000                                                            
   RMAX   =    1.529    core radius for proj-oper                               
   RAUG   =    1.300    factor for augmentation sphere                          
   RDEP   =    1.501    radius for radial grids                                 
   RDEPT  =    1.300    core radius for aug-charge                              
                                                                                
   Atomic configuration                                                         
    4 entries                                                                   
     n  l   j            E        occ.                                          
     1  0  0.50      -273.3789   2.0000                                         
     2  0  0.50       -13.7508   2.0000                                         
     2  1  0.50        -5.2854   2.0000                                         
     3  2  1.50        -5.4423   0.0000                                         
   Description                                                                  
     l       E           TYP  RCUT    TYP  RCUT                                 
     0    -13.7508458     23  1.200                                             
     0     -8.2022199     23  1.200                                             
     1     -5.2854383     23  1.500                                             
     1     34.0145650     23  1.500                                             
     2     -5.4423304      7  1.500                                             
  local pseudopotential read in
  partial core-charges read in
  partial kinetic energy density read in
  atomic valenz-charges read in
  non local Contribution for L=           0  read in
    real space projection operators read in
  non local Contribution for L=           0  read in
    real space projection operators read in
  non local Contribution for L=           1  read in
    real space projection operators read in
  non local Contribution for L=           1  read in
    real space projection operators read in
    PAW grid and wavefunctions read in
 
   number of l-projection  operators is LMAX  =           4
   number of lm-projection operators is LMMAX =           8
 
 POTCAR:    PAW_PBE O 08Apr2002                   
   VRHFIN =O: s2p4                                                              
   LEXCH  = PE                                                                  
   EATOM  =   432.3788 eV,   31.7789 Ry                                         
                                                                                
   TITEL  = PAW_PBE O 08Apr2002                                                 
   LULTRA =        F    use ultrasoft PP ?                                      
   IUNSCR =        1    unscreen: 0-lin 1-nonlin 2-no                           
   RPACOR =    1.200    partial core radius                                     
   POMASS =   16.000; ZVAL   =    6.000    mass and valenz                      
   RCORE  =    1.520    outmost cutoff radius                                   
   RWIGS  =    1.550; RWIGS  =    0.820    wigner-seitz radius (au A)           
   ENMAX  =  400.000; ENMIN  =  300.000 eV                                      
   ICORE  =        2    local potential                                         
   LCOR   =        T    correct aug charges                                     
   LPAW   =        T    paw PP                                                  
   EAUG   =  605.392                                                            
   DEXC   =    0.000                                                            
   RMAX   =    1.553    core radius for proj-oper                               
   RAUG   =    1.300    factor for augmentation sphere                          
   RDEP   =    1.550    radius for radial grids                                 
   RDEPT  =    1.329    core radius for aug-charge                              
                                                                                
   Atomic configuration                                                         
    4 entries                                                                   
     n  l   j            E        occ.                                          
     1  0  0.50      -514.6923   2.0000                                         
     2  0  0.50       -23.9615   2.0000                                         
     2  1  0.50        -9.0305   4.0000                                         
     3  2  1.50        -9.5241   0.0000                                         
   Description                                                                  
     l       E           TYP  RCUT    TYP  RCUT                                 
     0    -23.9615318     23  1.200                                             
     0     -9.5240782     23  1.200                                             
     1     -9.0304911     23  1.520                                             
     1      8.1634956     23  1.520                                             
     2     -9.5240782      7  1.500                                             
  local pseudopotential read in
  partial core-charges read in
  partial kinetic energy density read in
  kinetic energy density of atom read in
  atomic valenz-charges read in
  non local Contribution for L=           0  read in
    real space projection operators read in
  non local Contribution for L=           0  read in
    real space projection operators read in
  non local Contribution for L=           1  read in
    real space projection operators read in
  non local Contribution for L=           1  read in
    real space projection operators read in
    PAW grid and wavefunctions read in
 
   number of l-projection  operators is LMAX  =           4
   number of lm-projection operators is LMMAX =           8
 
 POTCAR:    PAW_PBE Pd 04Jan2005                  
   VRHFIN =Pd : s1 d9                                                           
   LEXCH  = PE                                                                  
   EATOM  =   809.7530 eV,   59.5152 Ry                                         
                                                                                
   TITEL  = PAW_PBE Pd 04Jan2005                                                
   LULTRA =        F    use ultrasoft PP ?                                      
   IUNSCR =        1    unscreen: 0-lin 1-nonlin 2-no                           
   RPACOR =    2.000    partial core radius                                     
   POMASS =  106.420; ZVAL   =   10.000    mass and valenz                      
   RCORE  =    2.600    outmost cutoff radius                                   
   RWIGS  =    2.710; RWIGS  =    1.434    wigner-seitz radius (au A)           
   ENMAX  =  250.925; ENMIN  =  188.194 eV                                      
   ICORE  =        3    local potential                                         
   LCOR   =        T    correct aug charges                                     
   LPAW   =        T    paw PP                                                  
   EAUG   =  416.230                                                            
   DEXC   =    0.000                                                            
   RMAX   =    2.653    core radius for proj-oper                               
   RAUG   =    1.300    factor for augmentation sphere                          
   RDEP   =    2.734    radius for radial grids                                 
   RDEPT  =    2.103    core radius for aug-charge                              
                                                                                
   Atomic configuration                                                         
   12 entries                                                                   
     n  l   j            E        occ.                                          
     1  0  0.50    -24164.6631   2.0000                                         
     2  0  0.50     -3530.9218   2.0000                                         
     2  1  1.50     -3165.6822   6.0000                                         
     3  0  0.50      -639.4577   2.0000                                         
     3  1  1.50      -519.4532   6.0000                                         
     3  2  2.50      -328.9757  10.0000                                         
     4  0  0.50       -88.7014   2.0000                                         
     4  1  1.50       -54.4540   6.0000                                         
     4  2  2.50        -6.6878   9.0000                                         
     5  0  0.50        -4.3543   1.0000                                         
     5  1  0.50        -1.3606   0.0000                                         
     4  3  2.50        -1.3606   0.0000                                         
   Description                                                                  
     l       E           TYP  RCUT    TYP  RCUT                                 
     2     -6.6878251     23  2.400                                             
     2     -8.0484077     23  2.400                                             
     0     -4.3542939     23  2.400                                             
     0      4.3406793     23  2.400                                             
     1     -4.0817478     23  2.600                                             
     1     15.8380318     23  2.600                                             
     3     -4.0817478     23  2.400                                             
  local pseudopotential read in
  partial core-charges read in
  partial kinetic energy density read in
  atomic valenz-charges read in
  non local Contribution for L=           2  read in
    real space projection operators read in
  non local Contribution for L=           2  read in
    real space projection operators read in
  non local Contribution for L=           0  read in
    real space projection operators read in
  non local Contribution for L=           0  read in
    real space projection operators read in
  non local Contribution for L=           1  read in
    real space projection operators read in
  non local Contribution for L=           1  read in
    real space projection operators read in
    PAW grid and wavefunctions read in
 
   number of l-projection  operators is LMAX  =           6
   number of lm-projection operators is LMMAX =          18
 
 POTCAR:    PAW_PBE Rh 04Feb2005                  
   VRHFIN =Rh: s1 d8                                                            
   LEXCH  = PE                                                                  
   EATOM  =   616.4198 eV,   45.3056 Ry                                         
                                                                                
   TITEL  = PAW_PBE Rh 04Feb2005                                                
   LULTRA =        F    use ultrasoft PP ?                                      
   IUNSCR =        1    unscreen: 0-lin 1-nonlin 2-no                           
   RPACOR =    2.170    partial core radius                                     
   POMASS =  102.906; ZVAL   =    9.000    mass and valenz                      
   RCORE  =    2.700    outmost cutoff radius                                   
   RWIGS  =    2.650; RWIGS  =    1.402    wigner-seitz radius (au A)           
   ENMAX  =  228.996; ENMIN  =  171.747 eV                                      
   ICORE  =        3    local potential                                         
   LCOR   =        T    correct aug charges                                     
   LPAW   =        T    paw PP                                                  
   EAUG   =  374.513                                                            
   DEXC   =    0.000                                                            
   RMAX   =    2.752    core radius for proj-oper                               
   RAUG   =    1.300    factor for augmentation sphere                          
   RDEP   =    2.703    radius for radial grids                                 
   RDEPT  =    2.174    core radius for aug-charge                              
                                                                                
   Atomic configuration                                                         
   12 entries                                                                   
     n  l   j            E        occ.                                          
     1  0  0.50    -23034.1986   2.0000                                         
     2  0  0.50     -3339.2387   2.0000                                         
     2  1  1.50     -2992.3290   6.0000                                         
     3  0  0.50      -596.7249   2.0000                                         
     3  1  1.50      -482.7183   6.0000                                         
     3  2  2.50      -300.5356  10.0000                                         
     4  0  0.50       -82.4809   2.0000                                         
     4  1  0.50       -50.4082   6.0000                                         
     4  2  2.50        -5.9408   8.0000                                         
     5  0  0.50        -4.2999   1.0000                                         
     5  1  1.50        -1.3606   0.0000                                         
     4  3  2.50        -1.3606   0.0000                                         
   Description                                                                  
     l       E           TYP  RCUT    TYP  RCUT                                 
     2     -5.9407964     23  2.500                                             
     2     -7.3013790     23  2.500                                             
     0     -4.2998518     23  2.400                                             
     0      6.0533315     23  2.400                                             
     1     -4.0817478     23  2.700                                             
     1     27.2116520     23  2.700                                             
     3     -4.0817478     23  2.500                                             
  local pseudopotential read in
  partial core-charges read in
  partial kinetic energy density read in
  atomic valenz-charges read in
  non local Contribution for L=           2  read in
    real space projection operators read in
  non local Contribution for L=           2  read in
    real space projection operators read in
  non local Contribution for L=           0  read in
    real space projection operators read in
  non local Contribution for L=           0  read in
    real space projection operators read in
  non local Contribution for L=           1  read in
    real space projection operators read in
  non local Contribution for L=           1  read in
    real space projection operators read in
    PAW grid and wavefunctions read in
 
   number of l-projection  operators is LMAX  =           6
   number of lm-projection operators is LMMAX =          18
 
 Optimization of the real space projectors (new method)

 maximal supplied QI-value         = 15.12
 optimisation between [QCUT,QGAM] = [  9.52, 19.05] = [ 25.40,101.61] Ry 
 Optimized for a Real-space Cutoff    1.43 Angstroem

   l    n(q)    QCUT    max X(q) W(low)/X(q) W(high)/X(q)  e(spline) 
   2      7     9.524    53.897    0.36E-03    0.74E-03    0.67E-07
   2      7     9.524    52.416    0.37E-03    0.76E-03    0.67E-07
   0      8     9.524   122.045    0.11E-03    0.28E-03    0.55E-07
   0      8     9.524    73.629    0.11E-03    0.27E-03    0.53E-07
   1      8     9.524    15.255    0.22E-03    0.34E-03    0.12E-06
   1      8     9.524     9.562    0.19E-03    0.28E-03    0.10E-06
 Optimization of the real space projectors (new method)

 maximal supplied QI-value         = 25.13
 optimisation between [QCUT,QGAM] = [  9.55, 19.10] = [ 25.54,102.17] Ry 
 Optimized for a Real-space Cutoff    1.39 Angstroem

   l    n(q)    QCUT    max X(q) W(low)/X(q) W(high)/X(q)  e(spline) 
   0      8     9.551   115.676    0.39E-03    0.54E-03    0.29E-06
   0      8     9.551    87.132    0.39E-03    0.54E-03    0.28E-06
   1      7     9.551     4.429    0.35E-03    0.51E-04    0.29E-06
   1      7     9.551     2.733    0.22E-03    0.42E-04    0.31E-06
 Optimization of the real space projectors (new method)

 maximal supplied QI-value         = 24.76
 optimisation between [QCUT,QGAM] = [  9.41, 19.06] = [ 24.78,101.75] Ry 
 Optimized for a Real-space Cutoff    1.48 Angstroem

   l    n(q)    QCUT    max X(q) W(low)/X(q) W(high)/X(q)  e(spline) 
   0      8     9.407    20.381    0.17E-03    0.13E-03    0.41E-06
   0      8     9.407    15.268    0.19E-03    0.15E-03    0.42E-06
   1      8     9.407     5.946    0.36E-03    0.29E-03    0.38E-06
   1      8     9.407     5.382    0.31E-03    0.24E-03    0.34E-06
 Optimization of the real space projectors (new method)

 maximal supplied QI-value         = 14.36
 optimisation between [QCUT,QGAM] = [  9.48, 19.10] = [ 25.16,102.17] Ry 
 Optimized for a Real-space Cutoff    1.52 Angstroem

   l    n(q)    QCUT    max X(q) W(low)/X(q) W(high)/X(q)  e(spline) 
   2      8     9.479    59.108    0.48E-04    0.31E-03    0.96E-07
   2      8     9.479    58.101    0.46E-04    0.32E-03    0.99E-07
   0      9     9.479   102.235    0.56E-04    0.11E-03    0.61E-07
   0      9     9.479    58.388    0.50E-04    0.10E-03    0.58E-07
   1      8     9.479    22.191    0.26E-03    0.25E-04    0.13E-06
   1      8     9.479    15.590    0.22E-03    0.23E-04    0.11E-06
 Optimization of the real space projectors (new method)

 maximal supplied QI-value         = 13.98
 optimisation between [QCUT,QGAM] = [  9.51, 19.16] = [ 25.32,102.78] Ry 
 Optimized for a Real-space Cutoff    1.57 Angstroem

   l    n(q)    QCUT    max X(q) W(low)/X(q) W(high)/X(q)  e(spline) 
   2      8     9.509    59.645    0.36E-03    0.26E-04    0.85E-07
   2      8     9.509    58.460    0.36E-03    0.26E-04    0.89E-07
   0      9     9.509    97.683    0.11E-03    0.15E-03    0.88E-07
   0      9     9.509    53.223    0.10E-03    0.14E-03    0.82E-07
   1      8     9.509    13.596    0.23E-03    0.93E-04    0.99E-07
   1      8     9.509     7.885    0.17E-03    0.72E-04    0.80E-07
  PAW_PBE Ag 02Apr2005                  :
 energy of atom  1       EATOM=-1037.2675
 kinetic energy error for atom=    0.0272 (will be added to EATOM!!)
  PAW_PBE C 08Apr2002                   :
 energy of atom  2       EATOM= -147.1560
 kinetic energy error for atom=    0.0854 (will be added to EATOM!!)
  PAW_PBE O 08Apr2002                   :
 energy of atom  3       EATOM= -432.3788
 kinetic energy error for atom=    0.3782 (will be added to EATOM!!)
  PAW_PBE Pd 04Jan2005                  :
 energy of atom  4       EATOM= -809.7530
 kinetic energy error for atom=    0.0269 (will be added to EATOM!!)
  PAW_PBE Rh 04Feb2005                  :
 energy of atom  5       EATOM= -616.4198
 kinetic energy error for atom=    0.0105 (will be added to EATOM!!)
 
 
 POSCAR: Ag  C  O Pd Rh                          
  positions in cartesian coordinates
  No initial velocities read in
 exchange correlation table for  LEXCH =        8
   RHO(1)=    0.500       N(1)  =     2000
   RHO(2)=  100.500       N(2)  =     4000
 


--------------------------------------------------------------------------------------------------------


 ion  position               nearest neighbor table
   1  0.333  0.834  0.579-  13 2.78  14 2.78  15 2.79  15 2.79  10 2.79  19 2.79  13 2.79  14 2.79
                            12 2.79  21 2.79  17 2.85  16 2.85
   2  0.167  0.167  0.704-   3 1.19  16 2.07  17 2.07  18 2.07
   3  0.167  0.167  0.745-   2 1.19
   4  0.333  0.333  0.344-   9 2.79   8 2.79  22 2.79  11 2.79   6 2.79   5 2.79   6 2.79   5 2.79
                            11 2.79
   5  0.833  0.833  0.344-   7 2.79   8 2.79  22 2.79  11 2.79   6 2.79   4 2.79  11 2.79   4 2.79
                             6 2.79
   6  0.333  0.833  0.344-   8 2.79   7 2.79   9 2.79   5 2.79   4 2.79   4 2.79  11 2.79   5 2.79
                            11 2.79
   7  0.000  0.000  0.422-   5 2.79   6 2.79  11 2.79   8 2.79  22 2.79   9 2.79  22 2.79   8 2.79
                             9 2.79  21 2.80  20 2.80  10 2.80
   8  0.500  0.000  0.422-   6 2.79   5 2.79   4 2.79   7 2.79   9 2.79   9 2.79  22 2.79   7 2.79
                            22 2.79  20 2.80  12 2.80  10 2.80
   9  0.500  0.500  0.422-   4 2.79   6 2.79  11 2.79   8 2.79  22 2.79   7 2.79   8 2.79   7 2.79
                            22 2.79  12 2.79  21 2.79  20 2.79
  10  0.167  0.167  0.501-  21 2.79  12 2.79  12 2.79  20 2.79  21 2.79  20 2.79   1 2.79  13 2.79
                            14 2.79   7 2.80   8 2.80  22 2.80
  11  0.833  0.333  0.344-  22 2.79   9 2.79   7 2.79   5 2.79   4 2.79   5 2.79   6 2.79   4 2.79
                             6 2.79
  12  0.666  0.666  0.500-  20 2.78  21 2.78  10 2.79  10 2.79  20 2.79  21 2.79   9 2.79   1 2.79
                            13 2.79   8 2.80  22 2.80  15 2.83
  13  0.834  0.333  0.579-   1 2.78  14 2.78  15 2.79  15 2.79  10 2.79  19 2.79   1 2.79  14 2.79
                            12 2.79  20 2.79  18 2.85  16 2.85
  14  0.333  0.333  0.579-   1 2.78  13 2.78  15 2.79  15 2.79  10 2.79  19 2.79   1 2.79  13 2.79
                            21 2.79  20 2.79  18 2.85  17 2.85
  15  0.833  0.833  0.580-  13 2.79   1 2.79  14 2.79  14 2.79   1 2.79  13 2.79  16 2.82  17 2.82
                            18 2.82  20 2.83  21 2.83  12 2.83
  16  1.000  1.000  0.660-   2 2.07  17 2.78  18 2.78  19 2.79  19 2.79  17 2.79  18 2.79  15 2.82
                            13 2.85   1 2.85
  17  0.501  1.000  0.660-   2 2.07  16 2.78  18 2.78  19 2.79  19 2.79  18 2.79  16 2.79  15 2.82
                             1 2.85  14 2.85
  18  1.000  0.501  0.660-   2 2.07  16 2.78  17 2.78  19 2.79  19 2.79  17 2.79  16 2.79  15 2.82
                            13 2.85  14 2.85
  19  0.500  0.500  0.657-  18 2.79  16 2.79  17 2.79  16 2.79  18 2.79  17 2.79  14 2.79  13 2.79
                             1 2.79
  20  0.666  0.167  0.500-  12 2.78  21 2.78  10 2.79  10 2.79  21 2.79  12 2.79   9 2.79  14 2.79
                            13 2.79   8 2.80   7 2.80  15 2.83
  21  0.167  0.666  0.500-  12 2.78  20 2.78  10 2.79  10 2.79  20 2.79  12 2.79   9 2.79  14 2.79
                             1 2.79  22 2.80   7 2.80  15 2.83
  22  0.000  0.500  0.422-  11 2.79   5 2.79   4 2.79   9 2.79   7 2.79   7 2.79   8 2.79   8 2.79
                             9 2.79  21 2.80  12 2.80  10 2.80
 
  LATTYP: Found a hexagonal cell.
 ALAT       =     5.5720014357
 C/A-ratio  =     5.2223676856
  
  Lattice vectors:
  
 A1 = (   2.7860007179,  -4.8254947933,   0.0000000000)
 A2 = (  -5.5720014357,   0.0000000000,   0.0000000000)
 A3 = (   0.0000000000,   0.0000000000, -29.0990402424)


Analysis of symmetry for initial positions (statically):
=====================================================================
 Subroutine PRICEL returns:
 Original cell was already a primitive cell.
 

 Routine SETGRP: Setting up the symmetry group for a 
 hexagonal supercell.


 Subroutine GETGRP returns: Found  2 space group operations
 (whereof  1 operations were pure point group operations)
 out of a pool of 24 trial point group operations.


The static configuration has the point symmetry C_1 .
 The point group associated with its full space group is C_1h.


Analysis of symmetry for dynamics (positions and initial velocities):
=====================================================================
 Subroutine PRICEL returns:
 Original cell was already a primitive cell.
 

 Routine SETGRP: Setting up the symmetry group for a 
 hexagonal supercell.


 Subroutine GETGRP returns: Found  2 space group operations
 (whereof  1 operations were pure point group operations)
 out of a pool of 24 trial point group operations.


The dynamic configuration has the point symmetry C_1 .
 The point group associated with its full space group is C_1h.


Analysis of constrained symmetry for selective dynamics:
=====================================================================
 Subroutine PRICEL returns:
 Original cell was already a primitive cell.
 

 Routine SETGRP: Setting up the symmetry group for a 
 hexagonal supercell.


 Subroutine GETGRP returns: Found  2 space group operations
 (whereof  1 operations were pure point group operations)
 out of a pool of 24 trial point group operations.


The constrained configuration has the point symmetry C_1 .
 The point group associated with its full space group is C_1h.


 Subroutine INISYM returns: Found  2 space group operations
 (whereof  1 operations are pure point group operations),
 and found     1 'primitive' translations

 
 
 KPOINTS: 0_2_Rh14_Ag6                            

Automatic generation of k-mesh.
Space group operators:
 irot       det(A)        alpha          n_x          n_y          n_z        tau_x        tau_y        tau_z
    1     1.000000     0.000000     1.000000     0.000000     0.000000     0.000000     0.000000     0.000000
    2    -1.000000   180.000000     1.000000     0.000000     0.000000    -0.500000     0.000000     0.000000
 
 Subroutine IBZKPT returns following result:
 ===========================================
 
 Found     52 irreducible k-points:
 
 Following reciprocal coordinates:
            Coordinates               Weight
  0.062500  0.062500  0.000000     32.000000
  0.000000  0.062500  0.000000     16.000000
  0.187500  0.062500  0.000000     32.000000
  0.125000  0.187500  0.000000     32.000000
 -0.062500  0.125000  0.000000     32.000000
  0.312500  0.062500  0.000000     32.000000
  0.250000  0.312500  0.000000     32.000000
 -0.062500  0.250000  0.000000     32.000000
  0.437500  0.062500  0.000000     32.000000
  0.375000  0.437500  0.000000     32.000000
 -0.062500  0.375000  0.000000     32.000000
 -0.437500  0.062500  0.000000     32.000000
  0.500000 -0.437500  0.000000     32.000000
 -0.062500  0.500000  0.000000     32.000000
 -0.312500  0.062500  0.000000     32.000000
 -0.375000 -0.312500  0.000000     32.000000
 -0.062500 -0.375000  0.000000     32.000000
 -0.187500  0.062500  0.000000     32.000000
 -0.250000 -0.187500  0.000000     32.000000
 -0.062500 -0.250000  0.000000     32.000000
 -0.062500  0.062500  0.000000     32.000000
 -0.125000 -0.062500  0.000000     16.000000
  0.187500  0.187500  0.000000     32.000000
  0.000000  0.187500  0.000000     16.000000
  0.312500  0.187500  0.000000     32.000000
  0.125000  0.312500  0.000000     32.000000
 -0.187500  0.125000  0.000000     32.000000
  0.437500  0.187500  0.000000     32.000000
  0.250000  0.437500  0.000000     32.000000
 -0.187500  0.250000  0.000000     32.000000
 -0.437500  0.187500  0.000000     32.000000
  0.375000 -0.437500  0.000000     32.000000
 -0.187500  0.375000  0.000000     32.000000
 -0.312500  0.187500  0.000000     32.000000
  0.500000 -0.312500  0.000000     32.000000
 -0.187500  0.500000  0.000000     32.000000
 -0.187500  0.187500  0.000000     32.000000
 -0.375000 -0.187500  0.000000     16.000000
  0.312500  0.312500  0.000000     32.000000
  0.000000  0.312500  0.000000     16.000000
  0.437500  0.312500  0.000000     32.000000
  0.125000  0.437500  0.000000     32.000000
 -0.312500  0.125000  0.000000     32.000000
 -0.437500  0.312500  0.000000     32.000000
  0.250000 -0.437500  0.000000     32.000000
 -0.312500  0.250000  0.000000     32.000000
 -0.312500  0.312500  0.000000     32.000000
  0.375000 -0.312500  0.000000     16.000000
  0.437500  0.437500  0.000000     32.000000
  0.000000  0.437500  0.000000     16.000000
 -0.437500  0.437500  0.000000     32.000000
  0.125000 -0.437500  0.000000     16.000000
 
 Following cartesian coordinates:
            Coordinates               Weight
  0.011217  0.006476  0.000000     32.000000
  0.000000  0.012952  0.000000     16.000000
  0.033650 -0.006476  0.000000     32.000000
  0.022434  0.025904  0.000000     32.000000
 -0.011217  0.032380  0.000000     32.000000
  0.056084 -0.019428  0.000000     32.000000
  0.044867  0.038856  0.000000     32.000000
 -0.011217  0.058284  0.000000     32.000000
  0.078518 -0.032380  0.000000     32.000000
  0.067301  0.051808  0.000000     32.000000
 -0.011217  0.084188  0.000000     32.000000
 -0.078518  0.058284  0.000000     32.000000
  0.089734 -0.142472  0.000000     32.000000
 -0.011217  0.110092  0.000000     32.000000
 -0.056084  0.045332  0.000000     32.000000
 -0.067301 -0.025904  0.000000     32.000000
 -0.011217 -0.071236  0.000000     32.000000
 -0.033650  0.032380  0.000000     32.000000
 -0.044867 -0.012952  0.000000     32.000000
 -0.011217 -0.045332  0.000000     32.000000
 -0.011217  0.019428  0.000000     32.000000
 -0.022434  0.000000  0.000000     16.000000
  0.033650  0.019428  0.000000     32.000000
  0.000000  0.038856  0.000000     16.000000
  0.056084  0.006476  0.000000     32.000000
  0.022434  0.051808  0.000000     32.000000
 -0.033650  0.045332  0.000000     32.000000
  0.078518 -0.006476  0.000000     32.000000
  0.044867  0.064760  0.000000     32.000000
 -0.033650  0.071236  0.000000     32.000000
 -0.078518  0.084188  0.000000     32.000000
  0.067301 -0.129520  0.000000     32.000000
 -0.033650  0.097140  0.000000     32.000000
 -0.056084  0.071236  0.000000     32.000000
  0.089734 -0.116568  0.000000     32.000000
 -0.033650  0.123044  0.000000     32.000000
 -0.033650  0.058284  0.000000     32.000000
 -0.067301  0.000000  0.000000     16.000000
  0.056084  0.032380  0.000000     32.000000
  0.000000  0.064760  0.000000     16.000000
  0.078518  0.019428  0.000000     32.000000
  0.022434  0.077712  0.000000     32.000000
 -0.056084  0.058284  0.000000     32.000000
 -0.078518  0.110092  0.000000     32.000000
  0.044867 -0.116568  0.000000     32.000000
 -0.056084  0.084188  0.000000     32.000000
 -0.056084  0.097140  0.000000     32.000000
  0.067301 -0.103616  0.000000     16.000000
  0.078518  0.045332  0.000000     32.000000
  0.000000  0.090664  0.000000     16.000000
 -0.078518  0.135996  0.000000     32.000000
  0.022434 -0.103616  0.000000     16.000000
 


--------------------------------------------------------------------------------------------------------




 Dimension of arrays:
   k-points           NKPTS =     52   k-points in BZ     NKDIM =     52   number of bands    NBANDS=    128
   number of dos      NEDOS =    301   number of ions     NIONS =     22
   non local maximal  LDIM  =      6   non local SUM 2l+1 LMDIM =     18
   total plane-waves  NPLWV = 109760
   max r-space proj   IRMAX =   2305   max aug-charges    IRDMAX=   8172
   dimension x,y,z NGX =    28 NGY =   28 NGZ =  140
   dimension x,y,z NGXF=    56 NGYF=   56 NGZF=  280
   support grid    NGXF=    56 NGYF=   56 NGZF=  280
   ions per type =               1   1   1  18   1
   NGX,Y,Z   is equivalent  to a cutoff of   8.35,  8.35,  8.00 a.u.
   NGXF,Y,Z  is equivalent  to a cutoff of  16.71, 16.71, 16.00 a.u.

 SYSTEM =  0_2_Rh14_Ag6                            
 POSCAR =  Ag  C  O Pd Rh                          

 Startparameter for this run:
   NWRITE =      2    write-flag & timer
   PREC   = normal    normal or accurate (medium, high low for compatibility)
   ISTART =      0    job   : 0-new  1-cont  2-samecut
   ICHARG =      2    charge: 1-file 2-atom 10-const
   ISPIN  =      1    spin polarized calculation?
   LNONCOLLINEAR =      F non collinear calculations
   LSORBIT =      F    spin-orbit coupling
   INIWAV =      1    electr: 0-lowe 1-rand  2-diag
   LASPH  =      F    aspherical Exc in radial PAW
   METAGGA=      F    non-selfconsistent MetaGGA calc.

 Electronic Relaxation 1
   ENCUT  =  350.0 eV  25.72 Ry    5.07 a.u.   8.50  8.50 44.39*2*pi/ulx,y,z
   ENINI  =  350.0     initial cutoff
   ENAUG  =  644.9 eV  augmentation charge cutoff
   NELM   =    300;   NELMIN=  5; NELMDL= -5     # of ELM steps 
   EDIFF  = 0.1E-04   stopping-criterion for ELM
   LREAL  =      T    real-space projection
   NLSPLINE    = F    spline interpolate recip. space projectors
   LCOMPAT=      F    compatible to vasp.4.4
   GGA_COMPAT  = T    GGA compatible to vasp.4.4-vasp.4.6
   LMAXPAW     = -100 max onsite density
   LMAXMIX     =    2 max onsite mixed and CHGCAR
   VOSKOWN=      0    Vosko Wilk Nusair interpolation
   ROPT   =   -0.00050  -0.00050  -0.00050  -0.00050
   ROPT   =   -0.00050
 Ionic relaxation
   EDIFFG = 0.1E-03   stopping-criterion for IOM
   NSW    =      0    number of steps for IOM
   NBLOCK =      1;   KBLOCK =      1    inner block; outer block 
   IBRION =     -1    ionic relax: 0-MD 1-quasi-New 2-CG
   NFREE  =      0    steps in history (QN), initial steepest desc. (CG)
   ISIF   =      2    stress and relaxation
   IWAVPR =     10    prediction:  0-non 1-charg 2-wave 3-comb
   ISYM   =      2    0-nonsym 1-usesym 2-fastsym
   LCORR  =      T    Harris-Foulkes like correction to forces

   POTIM  = 0.5000    time-step for ionic-motion
   TEIN   =    0.0    initial temperature
   TEBEG  =    0.0;   TEEND  =   0.0 temperature during run
   SMASS  =  -3.00    Nose mass-parameter (am)
   estimated Nose-frequenzy (Omega)   =  0.10E-29 period in steps =****** mass=  -0.710E-27a.u.
   SCALEE = 1.0000    scale energy and forces
   NPACO  =    256;   APACO  = 16.0  distance and # of slots for P.C.
   PSTRESS=    0.0 pullay stress

  Mass of Ions in am
   POMASS = 107.87 12.01 16.00106.42102.91
  Ionic Valenz
   ZVAL   =  11.00  4.00  6.00 10.00  9.00
  Atomic Wigner-Seitz radii
   RWIGS  =  -1.00 -1.00 -1.00 -1.00 -1.00
  virtual crystal weights 
   VCA    =   1.00  1.00  1.00  1.00  1.00
   NELECT =     210.0000    total number of electrons
   NUPDOWN=      -1.0000    fix difference up-down

 DOS related values:
   EMIN   =  10.00;   EMAX   =-10.00  energy-range for DOS
   EFERMI =   0.00
   ISMEAR =     1;   SIGMA  =   0.40  broadening in eV -4-tet -1-fermi 0-gaus

 Electronic relaxation 2 (details)
   IALGO  =     38    algorithm
   LDIAG  =      T    sub-space diagonalisation (order eigenvalues)
   LSUBROT=      F    optimize rotation matrix (better conditioning)
   TURBO    =      0    0=normal 1=particle mesh
   IRESTART =      0    0=no restart 2=restart with 2 vectors
   NREBOOT  =      0    no. of reboots
   NMIN     =      0    reboot dimension
   EREF     =   0.00    reference energy to select bands
   IMIX   =      4    mixing-type and parameters
     AMIX     =   0.40;   BMIX     =  1.00
     AMIX_MAG =   1.60;   BMIX_MAG =  1.00
     AMIN     =   0.10
     WC   =   100.;   INIMIX=   1;  MIXPRE=   1;  MAXMIX= -45

 Intra band minimization:
   WEIMIN = 0.0000     energy-eigenvalue tresh-hold
   EBREAK =  0.20E-07  absolut break condition
   DEPER  =   0.30     relativ break condition  

   TIME   =   0.40     timestep for ELM

  volume/ion in A,a.u.               =      35.56       240.00
  Fermi-wavevector in a.u.,A,eV,Ry     =   1.056016  1.995582 15.172819  1.115171
  Thomas-Fermi vector in A             =   2.191236
 
 Write flags
   LWAVE        =      F    write WAVECAR
   LDOWNSAMPLE  =      F    k-point downsampling of WAVECAR
   LCHARG       =      F    write CHGCAR
   LVTOT        =      F    write LOCPOT, total local potential
   LVHAR        =      F    write LOCPOT, Hartree potential only
   LELF         =      F    write electronic localiz. function (ELF)
   LORBIT       =     11    0 simple, 1 ext, 2 COOP (PROOUT), +10 PAW based schemes


 Dipole corrections
   LMONO  =      F    monopole corrections only (constant potential shift)
   LDIPOL =      F    correct potential (dipole corrections)
   IDIPOL =      0    1-x, 2-y, 3-z, 4-all directions 
   EPSILON=  1.0000000 bulk dielectric constant

 Exchange correlation treatment:
   GGA     =    --    GGA type
   LEXCH   =     8    internal setting for exchange type
   VOSKOWN=      0    Vosko Wilk Nusair interpolation
   LHFCALC =     F    Hartree Fock is set to
   LHFONE  =     F    Hartree Fock one center treatment
   AEXX    =    0.0000 exact exchange contribution

 Linear response parameters
   LEPSILON=     F    determine dielectric tensor
   LRPA    =     F    only Hartree local field effects (RPA)
   LNABLA  =     F    use nabla operator in PAW spheres
   LVEL    =     F    velocity operator in full k-point grid
   LINTERFAST=   F  fast interpolation
   KINTER  =     0    interpolate to denser k-point grid
   CSHIFT  =0.1000    complex shift for real part using Kramers Kronig
   OMEGAMAX=  -1.0    maximum frequency
   DEG_THRESHOLD= 0.2000000E-02 threshold for treating states as degnerate
   RTIME   =   -0.100 relaxation time in fs
  (WPLASMAI=    0.000 imaginary part of plasma frequency in eV, 0.658/RTIME)
   DFIELD  = 0.0000000 0.0000000 0.0000000 field for delta impulse in time
 
 Orbital magnetization related:
   ORBITALMAG=     F  switch on orbital magnetization
   LCHIMAG   =     F  perturbation theory with respect to B field
   DQ        =  0.001000  dq finite difference perturbation B field
   LLRAUG    =     F  two centre corrections for induced B field



--------------------------------------------------------------------------------------------------------


 Static calculation
 charge density and potential will be updated during run
 non-spin polarized calculation
 Variant of blocked Davidson
 Davidson routine will perform the subspace rotation
 perform sub-space diagonalisation
    after iterative eigenvector-optimisation
 modified Broyden-mixing scheme, WC =      100.0
 initial mixing is a Kerker type mixing with AMIX =  0.4000 and BMIX =      1.0000
 Hartree-type preconditioning will be used
 using additional bands           23
 real space projection scheme for non local part
 use partial core corrections
 calculate Harris-corrections to forces 
   (improved forces if not selfconsistent)
 use gradient corrections 
 use of overlap-Matrix (Vanderbilt PP)
 Methfessel and Paxton  Order N= 1 SIGMA  =   0.40


--------------------------------------------------------------------------------------------------------


  energy-cutoff  :      350.00
  volume of cell :      782.41
      direct lattice vectors                 reciprocal lattice vectors
     5.572001436  0.000000000  0.000000000     0.179468726 -0.103616317  0.000000000
     2.786000718  4.825494793  0.000000000     0.000000000  0.207232635  0.000000000
     0.000000000  0.000000000 29.099040242     0.000000000  0.000000000  0.034365395

  length of vectors
     5.572001436  5.572001436 29.099040242     0.207232635  0.207232635  0.034365395


 
 k-points in units of 2pi/SCALE and weight: 0_2_Rh14_Ag6                            
   0.01121680  0.00647602  0.00000000       0.021
   0.00000000  0.01295204  0.00000000       0.010
   0.03365039 -0.00647602  0.00000000       0.021
   0.02243359  0.02590408  0.00000000       0.021
  -0.01121680  0.03238010  0.00000000       0.021
   0.05608398 -0.01942806  0.00000000       0.021
   0.04486718  0.03885612  0.00000000       0.021
  -0.01121680  0.05828418  0.00000000       0.021
   0.07851757 -0.03238010  0.00000000       0.021
   0.06730077  0.05180816  0.00000000       0.021
  -0.01121680  0.08418826  0.00000000       0.021
  -0.07851757  0.05828418  0.00000000       0.021
   0.08973436 -0.14247244  0.00000000       0.021
  -0.01121680  0.11009234  0.00000000       0.021
  -0.05608398  0.04533214  0.00000000       0.021
  -0.06730077 -0.02590408  0.00000000       0.021
  -0.01121680 -0.07123622  0.00000000       0.021
  -0.03365039  0.03238010  0.00000000       0.021
  -0.04486718 -0.01295204  0.00000000       0.021
  -0.01121680 -0.04533214  0.00000000       0.021
  -0.01121680  0.01942806  0.00000000       0.021
  -0.02243359  0.00000000  0.00000000       0.010
   0.03365039  0.01942806  0.00000000       0.021
   0.00000000  0.03885612  0.00000000       0.010
   0.05608398  0.00647602  0.00000000       0.021
   0.02243359  0.05180816  0.00000000       0.021
  -0.03365039  0.04533214  0.00000000       0.021
   0.07851757 -0.00647602  0.00000000       0.021
   0.04486718  0.06476020  0.00000000       0.021
  -0.03365039  0.07123622  0.00000000       0.021
  -0.07851757  0.08418826  0.00000000       0.021
   0.06730077 -0.12952040  0.00000000       0.021
  -0.03365039  0.09714030  0.00000000       0.021
  -0.05608398  0.07123622  0.00000000       0.021
   0.08973436 -0.11656836  0.00000000       0.021
  -0.03365039  0.12304438  0.00000000       0.021
  -0.03365039  0.05828418  0.00000000       0.021
  -0.06730077  0.00000000  0.00000000       0.010
   0.05608398  0.03238010  0.00000000       0.021
   0.00000000  0.06476020  0.00000000       0.010
   0.07851757  0.01942806  0.00000000       0.021
   0.02243359  0.07771224  0.00000000       0.021
  -0.05608398  0.05828418  0.00000000       0.021
  -0.07851757  0.11009234  0.00000000       0.021
   0.04486718 -0.11656836  0.00000000       0.021
  -0.05608398  0.08418826  0.00000000       0.021
  -0.05608398  0.09714030  0.00000000       0.021
   0.06730077 -0.10361632  0.00000000       0.010
   0.07851757  0.04533214  0.00000000       0.021
   0.00000000  0.09066428  0.00000000       0.010
  -0.07851757  0.13599642  0.00000000       0.021
   0.02243359 -0.10361632  0.00000000       0.010
 
 k-points in reciprocal lattice and weights: 0_2_Rh14_Ag6                            
   0.06250000  0.06250000  0.00000000       0.021
   0.00000000  0.06250000  0.00000000       0.010
   0.18750000  0.06250000  0.00000000       0.021
   0.12500000  0.18750000  0.00000000       0.021
  -0.06250000  0.12500000  0.00000000       0.021
   0.31250000  0.06250000  0.00000000       0.021
   0.25000000  0.31250000  0.00000000       0.021
  -0.06250000  0.25000000  0.00000000       0.021
   0.43750000  0.06250000  0.00000000       0.021
   0.37500000  0.43750000  0.00000000       0.021
  -0.06250000  0.37500000  0.00000000       0.021
  -0.43750000  0.06250000  0.00000000       0.021
   0.50000000 -0.43750000  0.00000000       0.021
  -0.06250000  0.50000000  0.00000000       0.021
  -0.31250000  0.06250000  0.00000000       0.021
  -0.37500000 -0.31250000  0.00000000       0.021
  -0.06250000 -0.37500000  0.00000000       0.021
  -0.18750000  0.06250000  0.00000000       0.021
  -0.25000000 -0.18750000  0.00000000       0.021
  -0.06250000 -0.25000000  0.00000000       0.021
  -0.06250000  0.06250000  0.00000000       0.021
  -0.12500000 -0.06250000  0.00000000       0.010
   0.18750000  0.18750000  0.00000000       0.021
   0.00000000  0.18750000  0.00000000       0.010
   0.31250000  0.18750000  0.00000000       0.021
   0.12500000  0.31250000  0.00000000       0.021
  -0.18750000  0.12500000  0.00000000       0.021
   0.43750000  0.18750000  0.00000000       0.021
   0.25000000  0.43750000  0.00000000       0.021
  -0.18750000  0.25000000  0.00000000       0.021
  -0.43750000  0.18750000  0.00000000       0.021
   0.37500000 -0.43750000  0.00000000       0.021
  -0.18750000  0.37500000  0.00000000       0.021
  -0.31250000  0.18750000  0.00000000       0.021
   0.50000000 -0.31250000  0.00000000       0.021
  -0.18750000  0.50000000  0.00000000       0.021
  -0.18750000  0.18750000  0.00000000       0.021
  -0.37500000 -0.18750000  0.00000000       0.010
   0.31250000  0.31250000  0.00000000       0.021
   0.00000000  0.31250000  0.00000000       0.010
   0.43750000  0.31250000  0.00000000       0.021
   0.12500000  0.43750000  0.00000000       0.021
  -0.31250000  0.12500000  0.00000000       0.021
  -0.43750000  0.31250000  0.00000000       0.021
   0.25000000 -0.43750000  0.00000000       0.021
  -0.31250000  0.25000000  0.00000000       0.021
  -0.31250000  0.31250000  0.00000000       0.021
   0.37500000 -0.31250000  0.00000000       0.010
   0.43750000  0.43750000  0.00000000       0.021
   0.00000000  0.43750000  0.00000000       0.010
  -0.43750000  0.43750000  0.00000000       0.021
   0.12500000 -0.43750000  0.00000000       0.010
 
 position of ions in fractional coordinates (direct lattice) 
   0.33309863  0.83380273  0.57885917
   0.16666667  0.16666667  0.70427414
   0.16666667  0.16666667  0.74510493
   0.33333333  0.33333333  0.34365395
   0.83333333  0.83333333  0.34365395
   0.33333333  0.83333333  0.34365395
   0.00000000  0.00000000  0.42182697
   0.50000000  0.00000000  0.42182697
   0.50000000  0.50000000  0.42182697
   0.16666667  0.16666667  0.50056673
   0.83333333  0.33333333  0.34365395
   0.66641521  0.66641521  0.50035150
   0.83380273  0.33309863  0.57885917
   0.33309863  0.33309863  0.57885917
   0.83333333  0.83333333  0.58022527
   0.99963736  0.99963736  0.65980278
   0.50072527  0.99963736  0.65980278
   0.99963736  0.50072527  0.65980278
   0.50000000  0.50000000  0.65707736
   0.66641521  0.16716958  0.50035150
   0.16716958  0.66641521  0.50035150
   0.00000000  0.50000000  0.42182697
 
 position of ions in cartesian coordinates  (Angst):
   4.17900108  4.02351074 16.84424635
   1.39300036  0.80424913 20.49370154
   1.39300036  0.80424913 21.68183826
   2.78600072  1.60849826 10.00000000
   6.96500179  4.02124566 10.00000000
   4.17900108  4.02124566 10.00000000
   0.00000000  0.00000000 12.27476006
   2.78600072  0.00000000 12.27476006
   4.17900108  2.41274740 12.27476006
   1.39300036  0.80424913 14.56601146
   5.57200144  1.60849826 10.00000000
   5.56989977  3.21578313 14.55974839
   5.57396305  1.60736573 16.84424635
   2.78403910  1.60736573 16.84424635
   6.96500179  4.02124566 16.88399842
   8.35497123  4.82374489 19.19962764
   5.57503236  4.82374489 19.19962764
   6.96500179  2.41624720 19.19962764
   4.17900108  2.41274740 19.12032066
   4.17900108  0.80667593 14.55974839
   2.78810239  3.21578313 14.55974839
   1.39300036  2.41274740 12.27476006
 


--------------------------------------------------------------------------------------------------------


 k-point  1 :   0.0625 0.0625 0.0000  plane waves:   11699
 k-point  2 :   0.0000 0.0625 0.0000  plane waves:   11699
 k-point  3 :   0.1875 0.0625 0.0000  plane waves:   11678
 k-point  4 :   0.1250 0.1875 0.0000  plane waves:   11678
 k-point  5 :  -0.0625 0.1250 0.0000  plane waves:   11678
 k-point  6 :   0.3125 0.0625 0.0000  plane waves:   11644
 k-point  7 :   0.2500 0.3125 0.0000  plane waves:   11644
 k-point  8 :  -0.0625 0.2500 0.0000  plane waves:   11644
 k-point  9 :   0.4375 0.0625 0.0000  plane waves:   11613
 k-point 10 :   0.3750 0.4375 0.0000  plane waves:   11613
 k-point 11 :  -0.0625 0.3750 0.0000  plane waves:   11613
 k-point 12 :  -0.4375 0.0625 0.0000  plane waves:   11584
 k-point 13 :   0.5000-0.4375 0.0000  plane waves:   11584
 k-point 14 :  -0.0625 0.5000 0.0000  plane waves:   11584
 k-point 15 :  -0.3125 0.0625 0.0000  plane waves:   11633
 k-point 16 :  -0.3750-0.3125 0.0000  plane waves:   11633
 k-point 17 :  -0.0625-0.3750 0.0000  plane waves:   11633
 k-point 18 :  -0.1875 0.0625 0.0000  plane waves:   11664
 k-point 19 :  -0.2500-0.1875 0.0000  plane waves:   11664
 k-point 20 :  -0.0625-0.2500 0.0000  plane waves:   11664
 k-point 21 :  -0.0625 0.0625 0.0000  plane waves:   11701
 k-point 22 :  -0.1250-0.0625 0.0000  plane waves:   11701
 k-point 23 :   0.1875 0.1875 0.0000  plane waves:   11669
 k-point 24 :   0.0000 0.1875 0.0000  plane waves:   11669
 k-point 25 :   0.3125 0.1875 0.0000  plane waves:   11655
 k-point 26 :   0.1250 0.3125 0.0000  plane waves:   11655
 k-point 27 :  -0.1875 0.1250 0.0000  plane waves:   11655
 k-point 28 :   0.4375 0.1875 0.0000  plane waves:   11637
 k-point 29 :   0.2500 0.4375 0.0000  plane waves:   11637
 k-point 30 :  -0.1875 0.2500 0.0000  plane waves:   11637
 k-point 31 :  -0.4375 0.1875 0.0000  plane waves:   11602
 k-point 32 :   0.3750-0.4375 0.0000  plane waves:   11602
 k-point 33 :  -0.1875 0.3750 0.0000  plane waves:   11602
 k-point 34 :  -0.3125 0.1875 0.0000  plane waves:   11602
 k-point 35 :   0.5000-0.3125 0.0000  plane waves:   11602
 k-point 36 :  -0.1875 0.5000 0.0000  plane waves:   11602
 k-point 37 :  -0.1875 0.1875 0.0000  plane waves:   11673
 k-point 38 :  -0.3750-0.1875 0.0000  plane waves:   11673
 k-point 39 :   0.3125 0.3125 0.0000  plane waves:   11649
 k-point 40 :   0.0000 0.3125 0.0000  plane waves:   11649
 k-point 41 :   0.4375 0.3125 0.0000  plane waves:   11619
 k-point 42 :   0.1250 0.4375 0.0000  plane waves:   11619
 k-point 43 :  -0.3125 0.1250 0.0000  plane waves:   11619
 k-point 44 :  -0.4375 0.3125 0.0000  plane waves:   11603
 k-point 45 :   0.2500-0.4375 0.0000  plane waves:   11603
 k-point 46 :  -0.3125 0.2500 0.0000  plane waves:   11603
 k-point 47 :  -0.3125 0.3125 0.0000  plane waves:   11606
 k-point 48 :   0.3750-0.3125 0.0000  plane waves:   11606
 k-point 49 :   0.4375 0.4375 0.0000  plane waves:   11610
 k-point 50 :   0.0000 0.4375 0.0000  plane waves:   11610
 k-point 51 :  -0.4375 0.4375 0.0000  plane waves:   11600
 k-point 52 :   0.1250-0.4375 0.0000  plane waves:   11600

 maximum and minimum number of plane-waves per node :      1694     1624

 maximum number of plane-waves:     11701
 maximum index in each direction: 
   IXMAX=    8   IYMAX=    8   IZMAX=   44
   IXMIN=   -8   IYMIN=   -8   IZMIN=  -44


 real space projection operators:
  total allocation   :       5807.53 KBytes
  max/ min on nodes  :        839.66        820.97


 parallel 3D FFT for wavefunctions:
    minimum data exchange during FFTs selected (reduces bandwidth)
 parallel 3D FFT for charge:
    minimum data exchange during FFTs selected (reduces bandwidth)


 total amount of memory used by VASP MPI-rank0    83272. kBytes
=======================================================================

   base      :      30000. kBytes
   nonlr-proj:       1870. kBytes
   fftplans  :       1543. kBytes
   grid      :       3152. kBytes
   one-center:         62. kBytes
   wavefun   :      46645. kBytes
 
     INWAV:  cpu time    0.0000: real time    0.0000
 Broyden mixing: mesh for mixing (old mesh)
   NGX = 17   NGY = 17   NGZ = 89
  (NGX  = 56   NGY  = 56   NGZ  =280)
  gives a total of  25721 points

 initial charge density was supplied:
 charge density of overlapping atoms calculated
 number of electron     210.0000000 magnetization 
 keeping initial charge density in first step


--------------------------------------------------------------------------------------------------------


 Maximum index for non-local projection operator          325
 Maximum index for augmentation-charges          427 (set IRDMAX)


--------------------------------------------------------------------------------------------------------


 First call to EWALD:  gamma=   0.192
 Maximum number of real-space cells 5x 5x 1
 Maximum number of reciprocal cells 2x 2x 8

    FEWALD:  cpu time    0.0019: real time    0.0019


--------------------------------------- Iteration      1(   1)  ---------------------------------------


    POTLOK:  cpu time    0.0205: real time    0.0412
    SETDIJ:  cpu time    0.0026: real time    0.0026
     EDDAV:  cpu time   11.9161: real time   11.9214
       DOS:  cpu time    0.0073: real time    0.0074
    --------------------------------------------
      LOOP:  cpu time   11.9465: real time   11.9726

 eigenvalue-minimisations  : 13512
 total energy-change (2. order) : 0.1165625E+04  (-0.7979923E+04)
 number of electron     210.0000000 magnetization 
 augmentation part      210.0000000 magnetization 

 Free energy of the ion-electron system (eV)
  ---------------------------------------------------
  alpha Z        PSCENC =       363.90125391
  Ewald energy   TEWEN  =    107532.75535938
  -Hartree energ DENC   =   -124983.31847839
  -exchange      EXHF   =         0.00000000
  -V(xc)+E(xc)   XCENC  =      -516.59472322
  PAW double counting   =     16585.88916417   -15380.20568694
  entropy T*S    EENTRO =        -0.01168108
  eigenvalues    EBANDS =       755.41908255
  atomic energy  EATOM  =     16807.79110334
  Solvation  Ediel_sol  =         0.00000000
  ---------------------------------------------------
  free energy    TOTEN  =      1165.62539373 eV

  energy without entropy =     1165.63707481  energy(sigma->0) =     1165.62928742


--------------------------------------------------------------------------------------------------------




--------------------------------------- Iteration      1(   2)  ---------------------------------------


     EDDAV:  cpu time   12.9664: real time   12.9743
       DOS:  cpu time    0.0081: real time    0.0081
    --------------------------------------------
      LOOP:  cpu time   12.9745: real time   12.9824

 eigenvalue-minimisations  : 15224
 total energy-change (2. order) :-0.1214777E+04  (-0.1143147E+04)
 number of electron     210.0000000 magnetization 
 augmentation part      210.0000000 magnetization 

 Free energy of the ion-electron system (eV)
  ---------------------------------------------------
  alpha Z        PSCENC =       363.90125391
  Ewald energy   TEWEN  =    107532.75535938
  -Hartree energ DENC   =   -124983.31847839
  -exchange      EXHF   =         0.00000000
  -V(xc)+E(xc)   XCENC  =      -516.59472322
  PAW double counting   =     16585.88916417   -15380.20568694
  entropy T*S    EENTRO =         0.03290598
  eigenvalues    EBANDS =      -459.40280118
  atomic energy  EATOM  =     16807.79110334
  Solvation  Ediel_sol  =         0.00000000
  ---------------------------------------------------
  free energy    TOTEN  =       -49.15190294 eV

  energy without entropy =      -49.18480893  energy(sigma->0) =      -49.16287160


--------------------------------------------------------------------------------------------------------




--------------------------------------- Iteration      1(   3)  ---------------------------------------


     EDDAV:  cpu time   12.9264: real time   12.9309
       DOS:  cpu time    0.0083: real time    0.0083
    --------------------------------------------
      LOOP:  cpu time   12.9347: real time   12.9392

 eigenvalue-minimisations  : 15080
 total energy-change (2. order) :-0.7107997E+02  (-0.6498454E+02)
 number of electron     210.0000000 magnetization 
 augmentation part      210.0000000 magnetization 

 Free energy of the ion-electron system (eV)
  ---------------------------------------------------
  alpha Z        PSCENC =       363.90125391
  Ewald energy   TEWEN  =    107532.75535938
  -Hartree energ DENC   =   -124983.31847839
  -exchange      EXHF   =         0.00000000
  -V(xc)+E(xc)   XCENC  =      -516.59472322
  PAW double counting   =     16585.88916417   -15380.20568694
  entropy T*S    EENTRO =        -0.26206789
  eigenvalues    EBANDS =      -530.18779318
  atomic energy  EATOM  =     16807.79110334
  Solvation  Ediel_sol  =         0.00000000
  ---------------------------------------------------
  free energy    TOTEN  =      -120.23186882 eV

  energy without entropy =     -119.96980092  energy(sigma->0) =     -120.14451285


--------------------------------------------------------------------------------------------------------




--------------------------------------- Iteration      1(   4)  ---------------------------------------


     EDDAV:  cpu time   13.3546: real time   13.3619
       DOS:  cpu time    0.0082: real time    0.0082
    --------------------------------------------
      LOOP:  cpu time   13.3628: real time   13.3701

 eigenvalue-minimisations  : 15760
 total energy-change (2. order) :-0.2286700E+01  (-0.2244336E+01)
 number of electron     210.0000000 magnetization 
 augmentation part      210.0000000 magnetization 

 Free energy of the ion-electron system (eV)
  ---------------------------------------------------
  alpha Z        PSCENC =       363.90125391
  Ewald energy   TEWEN  =    107532.75535938
  -Hartree energ DENC   =   -124983.31847839
  -exchange      EXHF   =         0.00000000
  -V(xc)+E(xc)   XCENC  =      -516.59472322
  PAW double counting   =     16585.88916417   -15380.20568694
  entropy T*S    EENTRO =        -0.26630957
  eigenvalues    EBANDS =      -532.47025126
  atomic energy  EATOM  =     16807.79110334
  Solvation  Ediel_sol  =         0.00000000
  ---------------------------------------------------
  free energy    TOTEN  =      -122.51856858 eV

  energy without entropy =     -122.25225900  energy(sigma->0) =     -122.42979872


--------------------------------------------------------------------------------------------------------




--------------------------------------- Iteration      1(   5)  ---------------------------------------


     EDDAV:  cpu time   13.3571: real time   13.3653
       DOS:  cpu time    0.0085: real time    0.0085
    CHARGE:  cpu time    0.4896: real time    0.4896
    MIXING:  cpu time    0.0010: real time    0.0010
    --------------------------------------------
      LOOP:  cpu time   13.8561: real time   13.8644

 eigenvalue-minimisations  : 15720
 total energy-change (2. order) :-0.8534628E-01  (-0.8529495E-01)
 number of electron     209.9999769 magnetization 
 augmentation part       81.4469166 magnetization 

 Broyden mixing:
  rms(total) = 0.30930E+01    rms(broyden)= 0.30924E+01
  rms(prec ) = 0.31460E+01
  weight for this iteration     100.00

 Free energy of the ion-electron system (eV)
  ---------------------------------------------------
  alpha Z        PSCENC =       363.90125391
  Ewald energy   TEWEN  =    107532.75535938
  -Hartree energ DENC   =   -124983.31847839
  -exchange      EXHF   =         0.00000000
  -V(xc)+E(xc)   XCENC  =      -516.59472322
  PAW double counting   =     16585.88916417   -15380.20568694
  entropy T*S    EENTRO =        -0.26656146
  eigenvalues    EBANDS =      -532.55534565
  atomic energy  EATOM  =     16807.79110334
  Solvation  Ediel_sol  =         0.00000000
  ---------------------------------------------------
  free energy    TOTEN  =      -122.60391486 eV

  energy without entropy =     -122.33735339  energy(sigma->0) =     -122.51506103


--------------------------------------------------------------------------------------------------------




--------------------------------------- Iteration      1(   6)  ---------------------------------------


    POTLOK:  cpu time    0.0181: real time    0.0190
    SETDIJ:  cpu time    0.0025: real time    0.0025
     EDDAV:  cpu time   12.7168: real time   12.7213
       DOS:  cpu time    0.0083: real time    0.0083
    CHARGE:  cpu time    0.4885: real time    0.4888
    MIXING:  cpu time    0.0009: real time    0.0009
    --------------------------------------------
      LOOP:  cpu time   13.2351: real time   13.2408

 eigenvalue-minimisations  : 14920
 total energy-change (2. order) :-0.2231590E+01  (-0.4094928E+01)
 number of electron     209.9999761 magnetization 
 augmentation part       85.1458336 magnetization 

 Broyden mixing:
  rms(total) = 0.30215E+01    rms(broyden)= 0.30209E+01
  rms(prec ) = 0.40086E+01
  weight for this iteration     100.00

 eigenvalues of (default mixing * dielectric matrix)
  average eigenvalue GAMMA=   0.5629
  0.5629

 Free energy of the ion-electron system (eV)
  ---------------------------------------------------
  alpha Z        PSCENC =       363.90125391
  Ewald energy   TEWEN  =    107532.75535938
  -Hartree energ DENC   =   -124844.93786015
  -exchange      EXHF   =         0.00000000
  -V(xc)+E(xc)   XCENC  =      -519.83448195
  PAW double counting   =     17819.15804966   -16638.19498287
  entropy T*S    EENTRO =        -0.15254384
  eigenvalues    EBANDS =      -645.32140277
  atomic energy  EATOM  =     16807.79110334
  Solvation  Ediel_sol  =         0.00000000
  ---------------------------------------------------
  free energy    TOTEN  =      -124.83550529 eV

  energy without entropy =     -124.68296145  energy(sigma->0) =     -124.78465734


--------------------------------------------------------------------------------------------------------




--------------------------------------- Iteration      1(   7)  ---------------------------------------


    POTLOK:  cpu time    0.0191: real time    0.0192
    SETDIJ:  cpu time    0.0025: real time    0.0025
     EDDAV:  cpu time   14.1582: real time   14.1653
       DOS:  cpu time    0.0082: real time    0.0082
    CHARGE:  cpu time    0.4847: real time    0.4847
    MIXING:  cpu time    0.0014: real time    0.0014
    --------------------------------------------
      LOOP:  cpu time   14.6741: real time   14.6813

 eigenvalue-minimisations  : 17024
 total energy-change (2. order) :-0.3458390E+02  (-0.7906036E+01)
 number of electron     209.9999759 magnetization 
 augmentation part       81.6631049 magnetization 

 Broyden mixing:
  rms(total) = 0.49869E+01    rms(broyden)= 0.49862E+01
  rms(prec ) = 0.75543E+01
  weight for this iteration     100.00

 eigenvalues of (default mixing * dielectric matrix)
  average eigenvalue GAMMA=   0.5381
  0.9717  0.1045

 Free energy of the ion-electron system (eV)
  ---------------------------------------------------
  alpha Z        PSCENC =       363.90125391
  Ewald energy   TEWEN  =    107532.75535938
  -Hartree energ DENC   =   -124873.46967662
  -exchange      EXHF   =         0.00000000
  -V(xc)+E(xc)   XCENC  =      -520.21000292
  PAW double counting   =     18103.63740878   -16926.19029374
  entropy T*S    EENTRO =        -0.06849303
  eigenvalues    EBANDS =      -647.56606590
  atomic energy  EATOM  =     16807.79110334
  Solvation  Ediel_sol  =         0.00000000
  ---------------------------------------------------
  free energy    TOTEN  =      -159.41940680 eV

  energy without entropy =     -159.35091377  energy(sigma->0) =     -159.39657579


--------------------------------------------------------------------------------------------------------




--------------------------------------- Iteration      1(   8)  ---------------------------------------


    POTLOK:  cpu time    0.0207: real time    0.0220
    SETDIJ:  cpu time    0.0026: real time    0.0026
     EDDAV:  cpu time   13.8980: real time   13.8989
       DOS:  cpu time    0.0082: real time    0.0082
    CHARGE:  cpu time    0.4895: real time    0.4896
    MIXING:  cpu time    0.0011: real time    0.0011
    --------------------------------------------
      LOOP:  cpu time   14.4202: real time   14.4224

 eigenvalue-minimisations  : 16608
 total energy-change (2. order) : 0.2295799E+02  (-0.6837545E+01)
 number of electron     209.9999769 magnetization 
 augmentation part       84.2854356 magnetization 

 Broyden mixing:
  rms(total) = 0.35147E+01    rms(broyden)= 0.35142E+01
  rms(prec ) = 0.40984E+01
  weight for this iteration     100.00

 eigenvalues of (default mixing * dielectric matrix)
  average eigenvalue GAMMA=   0.5564
  1.3308  0.2184  0.1201

 Free energy of the ion-electron system (eV)
  ---------------------------------------------------
  alpha Z        PSCENC =       363.90125391
  Ewald energy   TEWEN  =    107532.75535938
  -Hartree energ DENC   =   -124950.08067059
  -exchange      EXHF   =         0.00000000
  -V(xc)+E(xc)   XCENC  =      -521.02470493
  PAW double counting   =     18615.76103981   -17447.72614049
  entropy T*S    EENTRO =        -0.13650620
  eigenvalues    EBANDS =      -537.70214607
  atomic energy  EATOM  =     16807.79110334
  Solvation  Ediel_sol  =         0.00000000
  ---------------------------------------------------
  free energy    TOTEN  =      -136.46141184 eV

  energy without entropy =     -136.32490563  energy(sigma->0) =     -136.41590977


--------------------------------------------------------------------------------------------------------




--------------------------------------- Iteration      1(   9)  ---------------------------------------


    POTLOK:  cpu time    0.0183: real time    0.0184
    SETDIJ:  cpu time    0.0026: real time    0.0026
     EDDAV:  cpu time   12.8845: real time   12.8917
       DOS:  cpu time    0.0085: real time    0.0085
    CHARGE:  cpu time    0.4880: real time    0.4880
    MIXING:  cpu time    0.0011: real time    0.0011
    --------------------------------------------
      LOOP:  cpu time   13.4029: real time   13.4102

 eigenvalue-minimisations  : 15080
 total energy-change (2. order) : 0.1318786E+02  (-0.2775767E+01)
 number of electron     209.9999749 magnetization 
 augmentation part       85.8103289 magnetization 

 Broyden mixing:
  rms(total) = 0.20827E+01    rms(broyden)= 0.20824E+01
  rms(prec ) = 0.24966E+01
  weight for this iteration     100.00

 eigenvalues of (default mixing * dielectric matrix)
  average eigenvalue GAMMA=   0.5584
  1.4212  0.4564  0.2489  0.1072

 Free energy of the ion-electron system (eV)
  ---------------------------------------------------
  alpha Z        PSCENC =       363.90125391
  Ewald energy   TEWEN  =    107532.75535938
  -Hartree energ DENC   =   -124817.73056359
  -exchange      EXHF   =         0.00000000
  -V(xc)+E(xc)   XCENC  =      -521.40240655
  PAW double counting   =     19098.18480326   -17936.78282921
  entropy T*S    EENTRO =        -0.11968010
  eigenvalues    EBANDS =      -649.87058996
  atomic energy  EATOM  =     16807.79110334
  Solvation  Ediel_sol  =         0.00000000
  ---------------------------------------------------
  free energy    TOTEN  =      -123.27354951 eV

  energy without entropy =     -123.15386941  energy(sigma->0) =     -123.23365615


--------------------------------------------------------------------------------------------------------




--------------------------------------- Iteration      1(  10)  ---------------------------------------


    POTLOK:  cpu time    0.0171: real time    0.0172
    SETDIJ:  cpu time    0.0025: real time    0.0025
     EDDAV:  cpu time   12.3976: real time   12.3985
       DOS:  cpu time    0.0087: real time    0.0087
    CHARGE:  cpu time    0.4908: real time    0.4908
    MIXING:  cpu time    0.0012: real time    0.0012
    --------------------------------------------
      LOOP:  cpu time   12.9181: real time   12.9190

 eigenvalue-minimisations  : 14400
 total energy-change (2. order) : 0.3437782E+01  (-0.1299471E+01)
 number of electron     209.9999762 magnetization 
 augmentation part       85.1378818 magnetization 

 Broyden mixing:
  rms(total) = 0.13908E+01    rms(broyden)= 0.13905E+01
  rms(prec ) = 0.18090E+01
  weight for this iteration     100.00

 eigenvalues of (default mixing * dielectric matrix)
  average eigenvalue GAMMA=   0.6125
  1.5789  0.5896  0.5896  0.1099  0.1946

 Free energy of the ion-electron system (eV)
  ---------------------------------------------------
  alpha Z        PSCENC =       363.90125391
  Ewald energy   TEWEN  =    107532.75535938
  -Hartree energ DENC   =   -124916.13788386
  -exchange      EXHF   =         0.00000000
  -V(xc)+E(xc)   XCENC  =      -521.12491211
  PAW double counting   =     19402.12422123   -18241.24586890
  entropy T*S    EENTRO =        -0.21556490
  eigenvalues    EBANDS =      -547.68347575
  atomic energy  EATOM  =     16807.79110334
  Solvation  Ediel_sol  =         0.00000000
  ---------------------------------------------------
  free energy    TOTEN  =      -119.83576765 eV

  energy without entropy =     -119.62020275  energy(sigma->0) =     -119.76391268


--------------------------------------------------------------------------------------------------------




--------------------------------------- Iteration      1(  11)  ---------------------------------------


    POTLOK:  cpu time    0.0181: real time    0.0194
    SETDIJ:  cpu time    0.0025: real time    0.0025
     EDDAV:  cpu time   12.4040: real time   12.4118
       DOS:  cpu time    0.0086: real time    0.0086
    CHARGE:  cpu time    0.4876: real time    0.4875
    MIXING:  cpu time    0.0012: real time    0.0012
    --------------------------------------------
      LOOP:  cpu time   12.9219: real time   12.9309

 eigenvalue-minimisations  : 14152
 total energy-change (2. order) : 0.2234207E+01  (-0.1293698E+01)
 number of electron     209.9999763 magnetization 
 augmentation part       85.0416207 magnetization 

 Broyden mixing:
  rms(total) = 0.11053E+01    rms(broyden)= 0.11050E+01
  rms(prec ) = 0.13392E+01
  weight for this iteration     100.00

 eigenvalues of (default mixing * dielectric matrix)
  average eigenvalue GAMMA=   0.5812
  1.6848  0.5972  0.5972  0.1097  0.3038  0.1947

 Free energy of the ion-electron system (eV)
  ---------------------------------------------------
  alpha Z        PSCENC =       363.90125391
  Ewald energy   TEWEN  =    107532.75535938
  -Hartree energ DENC   =   -124924.76836425
  -exchange      EXHF   =         0.00000000
  -V(xc)+E(xc)   XCENC  =      -520.69683421
  PAW double counting   =     19639.03968354   -18478.12172063
  entropy T*S    EENTRO =        -0.30757706
  eigenvalues    EBANDS =      -537.19446504
  atomic energy  EATOM  =     16807.79110334
  Solvation  Ediel_sol  =         0.00000000
  ---------------------------------------------------
  free energy    TOTEN  =      -117.60156100 eV

  energy without entropy =     -117.29398394  energy(sigma->0) =     -117.49903531


--------------------------------------------------------------------------------------------------------




--------------------------------------- Iteration      1(  12)  ---------------------------------------


    POTLOK:  cpu time    0.0191: real time    0.0192
    SETDIJ:  cpu time    0.0026: real time    0.0026
     EDDAV:  cpu time   12.5481: real time   12.5489
       DOS:  cpu time    0.0084: real time    0.0084
    CHARGE:  cpu time    0.4888: real time    0.4888
    MIXING:  cpu time    0.0013: real time    0.0013
    --------------------------------------------
      LOOP:  cpu time   13.0684: real time   13.0693

 eigenvalue-minimisations  : 14432
 total energy-change (2. order) : 0.1195114E+01  (-0.6020451E+00)
 number of electron     209.9999759 magnetization 
 augmentation part       85.1308982 magnetization 

 Broyden mixing:
  rms(total) = 0.76347E+00    rms(broyden)= 0.76312E+00
  rms(prec ) = 0.81153E+00
  weight for this iteration     100.00

 eigenvalues of (default mixing * dielectric matrix)
  average eigenvalue GAMMA=   0.5881
  1.9205  0.6401  0.6401  0.4130  0.1096  0.1967  0.1967

 Free energy of the ion-electron system (eV)
  ---------------------------------------------------
  alpha Z        PSCENC =       363.90125391
  Ewald energy   TEWEN  =    107532.75535938
  -Hartree energ DENC   =   -124912.48180362
  -exchange      EXHF   =         0.00000000
  -V(xc)+E(xc)   XCENC  =      -520.63047318
  PAW double counting   =     19711.91705512   -18551.42478598
  entropy T*S    EENTRO =        -0.19299058
  eigenvalues    EBANDS =      -548.04116548
  atomic energy  EATOM  =     16807.79110334
  Solvation  Ediel_sol  =         0.00000000
  ---------------------------------------------------
  free energy    TOTEN  =      -116.40644708 eV

  energy without entropy =     -116.21345650  energy(sigma->0) =     -116.34211688


--------------------------------------------------------------------------------------------------------




--------------------------------------- Iteration      1(  13)  ---------------------------------------


    POTLOK:  cpu time    0.0211: real time    0.0222
    SETDIJ:  cpu time    0.0028: real time    0.0028
     EDDAV:  cpu time   12.2731: real time   12.2850
       DOS:  cpu time    0.0087: real time    0.0087
    CHARGE:  cpu time    0.4882: real time    0.4883
    MIXING:  cpu time    0.0014: real time    0.0014
    --------------------------------------------
      LOOP:  cpu time   12.7952: real time   12.8084

 eigenvalue-minimisations  : 13976
 total energy-change (2. order) : 0.8585597E-01  (-0.2107575E+00)
 number of electron     209.9999760 magnetization 
 augmentation part       85.2480376 magnetization 

 Broyden mixing:
  rms(total) = 0.49198E+00    rms(broyden)= 0.49183E+00
  rms(prec ) = 0.53775E+00
  weight for this iteration     100.00

 eigenvalues of (default mixing * dielectric matrix)
  average eigenvalue GAMMA=   0.6240
  2.1310  0.7868  0.7868  0.5001  0.1097  0.2806  0.2072  0.1901

 Free energy of the ion-electron system (eV)
  ---------------------------------------------------
  alpha Z        PSCENC =       363.90125391
  Ewald energy   TEWEN  =    107532.75535938
  -Hartree energ DENC   =   -124915.28781430
  -exchange      EXHF   =         0.00000000
  -V(xc)+E(xc)   XCENC  =      -520.66893219
  PAW double counting   =     19814.86545308   -18655.80633526
  entropy T*S    EENTRO =        -0.33406969
  eigenvalues    EBANDS =      -543.53660938
  atomic energy  EATOM  =     16807.79110334
  Solvation  Ediel_sol  =         0.00000000
  ---------------------------------------------------
  free energy    TOTEN  =      -116.32059110 eV

  energy without entropy =     -115.98652142  energy(sigma->0) =     -116.20923454


--------------------------------------------------------------------------------------------------------




[...]
      7      -4.6181      2.00000
      8      -4.3237      2.00000
      9      -4.2227      2.00000
     10      -4.1871      2.00000
     11      -4.1398      2.00000
     12      -3.9920      2.00000
     13      -3.9533      2.00000
     14      -3.8366      2.00000
     15      -3.7959      2.00000
     16      -3.7765      2.00000
     17      -3.7346      2.00000
     18      -3.6461      2.00000
     19      -3.5752      2.00000
     20      -3.5517      2.00000
     21      -3.5070      2.00000
     22      -3.4838      2.00000
     23      -3.4641      2.00000
     24      -3.4134      2.00000
     25      -3.3188      2.00000
     26      -3.2852      2.00000
     27      -3.2457      2.00000
     28      -3.2099      2.00000
     29      -3.1901      2.00000
     30      -3.1701      2.00000
     31      -3.0978      2.00000
     32      -3.0830      2.00000
     33      -3.0580      2.00000
     34      -3.0340      2.00000
     35      -2.9657      2.00000
     36      -2.9102      2.00000
     37      -2.8396      2.00000
     38      -2.7608      2.00000
     39      -2.7369      2.00000
     40      -2.7269      2.00000
     41      -2.6346      2.00000
     42      -2.6279      2.00000
     43      -2.5815      2.00000
     44      -2.5059      2.00000
     45      -2.4239      2.00000
     46      -2.3697      2.00000
     47      -2.3135      2.00000
     48      -2.2730      2.00000
     49      -2.2619      2.00000
     50      -2.1959      2.00000
     51      -2.1654      2.00000
     52      -2.1402      2.00000
     53      -2.0681      2.00000
     54      -2.0485      2.00000
     55      -2.0369      2.00000
     56      -1.9973      2.00000
     57      -1.9607      2.00000
     58      -1.9228      2.00000
     59      -1.8948      2.00000
     60      -1.8766      2.00000
     61      -1.8283      2.00000
     62      -1.7952      2.00000
     63      -1.7835      2.00000
     64      -1.7101      2.00000
     65      -1.6961      2.00000
     66      -1.6528      2.00000
     67      -1.6269      2.00000
     68      -1.6212      2.00000
     69      -1.5469      2.00000
     70      -1.4557      2.00000
     71      -1.3950      2.00000
     72      -1.3189      2.00000
     73      -1.2492      2.00000
     74      -1.2079      2.00000
     75      -1.1756      2.00000
     76      -1.1499      2.00000
     77      -1.0881      2.00000
     78      -1.0644      2.00001
     79      -1.0379      2.00001
     80      -0.9805      2.00002
     81      -0.9454      2.00004
     82      -0.9015      2.00007
     83      -0.8562      2.00014
     84      -0.8368      2.00018
     85      -0.7425      2.00063
     86      -0.7417      2.00064
     87      -0.6994      2.00108
     88      -0.6892      2.00122
     89      -0.6398      2.00217
     90      -0.5866      2.00387
     91      -0.5537      2.00542
     92      -0.5412      2.00612
     93      -0.4853      2.01034
     94      -0.4702      2.01180
     95      -0.3956      2.02153
     96      -0.3022      2.03969
     97      -0.2527      2.05105
     98      -0.1759      2.06658
     99      -0.1107      2.07057
    100      -0.0828      2.06719
    101       0.0033      2.02513
    102       0.0902      1.91230
    103       0.1612      1.75321
    104       0.2322      1.53277
    105       0.2466      1.48113
    106       0.2922      1.30641
    107       0.3754      0.96042
    108       0.4130      0.80295
    109       0.4748      0.55820
    110       0.5498      0.30612
    111       1.1870     -0.01344
    112       1.5804     -0.00015
    113       1.7732     -0.00001
    114       1.7761     -0.00001
    115       2.2716     -0.00000
    116       2.9561     -0.00000
    117       3.3178     -0.00000
    118       3.5071     -0.00000
    119       3.9282     -0.00000
    120       4.1942     -0.00000
    121       4.6325     -0.00000
    122       4.7185     -0.00000
    123       5.0527     -0.00000
    124       5.4190     -0.00000
    125       5.5877     -0.00000
    126       6.0827     -0.00000
    127       6.8008     -0.00000
    128       7.2290     -0.00000


--------------------------------------------------------------------------------------------------------


 soft charge-density along one line, spin component           1
         0         1         2         3         4         5         6         7         8         9
 total charge-density along one line
 
 pseudopotential strength for first ion, spin component:           1
 -8.056   0.000  -0.000  -0.005  -0.000  -8.122   0.000  -0.000
  0.000  -8.049   0.002   0.000  -0.005   0.000  -8.116   0.002
 -0.000   0.002  -8.060  -0.000   0.002  -0.000   0.002  -8.126
 -0.005   0.000  -0.000  -8.053  -0.000  -0.004   0.000  -0.000
 -0.000  -0.005   0.002  -0.000  -8.056  -0.000  -0.005   0.002
 -8.122   0.000  -0.000  -0.004  -0.000  -8.161   0.000  -0.000
  0.000  -8.116   0.002   0.000  -0.005   0.000  -8.155   0.001
 -0.000   0.002  -8.126  -0.000   0.002  -0.000   0.001  -8.165
 -0.004   0.000  -0.000  -8.119  -0.000  -0.004   0.000  -0.000
 -0.000  -0.005   0.002  -0.000  -8.122  -0.000  -0.005   0.002
 -0.000  -0.001  -0.000  -0.000   0.001  -0.000  -0.001  -0.000
 -0.000  -0.001  -0.001  -0.000   0.001  -0.000  -0.001  -0.001
 -0.000  -0.002  -0.001   0.000  -0.001  -0.000  -0.002  -0.000
  0.000   0.001  -0.002   0.000  -0.000   0.000   0.001  -0.002
  0.001   0.000   0.000  -0.002   0.000   0.001   0.000   0.000
 -0.000  -0.003  -0.001   0.000  -0.001  -0.000  -0.003  -0.001
  0.000   0.001  -0.004  -0.000  -0.000   0.000   0.001  -0.004
  0.001   0.000   0.000  -0.003   0.000   0.001   0.000   0.000
 total augmentation occupancy for first ion, spin component:           1
  4.254   0.000   0.000   0.022   0.000  -2.258   0.000   0.000  -0.089   0.000   0.000   0.000   0.000   0.000   0.001   0.000
  0.000   4.279   0.052   0.000   0.073   0.000  -2.207  -0.031   0.000  -0.142   0.056  -0.003  -0.003   0.007   0.000  -0.001
  0.000   0.052   4.225   0.000   0.037   0.000  -0.031  -2.284   0.000  -0.028   0.031  -0.000   0.002   0.005   0.000  -0.000
  0.022   0.000   0.000   4.222   0.000  -0.089   0.000   0.000  -2.149   0.000   0.000   0.000   0.000   0.000  -0.003   0.000
  0.000   0.073   0.037   0.000   4.245   0.000  -0.142  -0.028   0.000  -2.251   0.012   0.001  -0.002   0.002   0.000  -0.000
 -2.258   0.000   0.000  -0.089   0.000   2.208   0.000   0.000   0.146   0.000   0.000   0.000   0.000   0.000  -0.003   0.000
  0.000  -2.207  -0.031   0.000  -0.142   0.000   2.091   0.014   0.000   0.201  -0.050   0.004  -0.003  -0.010   0.000   0.001
  0.000  -0.031  -2.284   0.000  -0.028   0.000   0.014   2.278   0.000   0.022  -0.034   0.002  -0.004  -0.011   0.000  -0.000
 -0.089   0.000   0.000  -2.149   0.000   0.146   0.000   0.000   2.031   0.000   0.000   0.000   0.000   0.000  -0.003   0.000
  0.000  -0.142  -0.028   0.000  -2.251   0.000   0.201   0.022   0.000   2.203  -0.016   0.003   0.001  -0.002   0.000   0.000
  0.000   0.056   0.031   0.000   0.012   0.000  -0.050  -0.034   0.000  -0.016   2.442  -0.491  -0.004  -0.019   0.000   0.000
  0.000  -0.003  -0.000   0.000   0.001   0.000   0.004   0.002   0.000   0.003  -0.491   0.105   0.000   0.003   0.000  -0.000
  0.000  -0.003   0.002   0.000  -0.002   0.000  -0.003  -0.004   0.000   0.001  -0.004   0.000   0.209  -0.005   0.000  -0.013
  0.000   0.007   0.005   0.000   0.002   0.000  -0.010  -0.011   0.000  -0.002  -0.019   0.003  -0.005   0.202   0.000   0.000
  0.001   0.000   0.000  -0.003   0.000  -0.003   0.000   0.000  -0.003   0.000   0.000   0.000   0.000   0.000   0.208   0.000
  0.000  -0.001  -0.000   0.000  -0.000   0.000   0.001  -0.000   0.000   0.000   0.000  -0.000  -0.013   0.000   0.000   0.001
  0.000   0.001  -0.001   0.000  -0.000   0.000   0.000   0.001   0.000  -0.000   0.001  -0.000   0.000  -0.013   0.000  -0.000
  0.000   0.000   0.000  -0.000   0.000   0.000   0.000   0.000   0.001   0.000   0.000   0.000   0.000   0.000  -0.013   0.000


------------------------ aborting loop because EDIFF is reached ----------------------------------------


 


 total charge     
 
# of ion       s       p       d       tot
------------------------------------------
    1        0.431   0.354   9.159   9.944
    2        0.910   1.586   0.000   2.496
    3        1.667   3.531   0.000   5.198
    4        0.455   0.328   8.474   9.258
    5        0.453   0.329   8.477   9.258
    6        0.449   0.323   8.484   9.257
    7        0.470   0.447   8.440   9.356
    8        0.470   0.446   8.436   9.352
    9        0.469   0.448   8.437   9.354
   10        0.474   0.439   8.450   9.363
   11        0.456   0.328   8.476   9.260
   12        0.469   0.435   8.453   9.356
   13        0.456   0.418   8.483   9.356
   14        0.457   0.416   8.474   9.347
   15        0.459   0.404   8.508   9.371
   16        0.471   0.425   8.538   9.433
   17        0.470   0.426   8.545   9.441
   18        0.473   0.430   8.529   9.432
   19        0.440   0.313   8.525   9.278
   20        0.467   0.434   8.448   9.350
   21        0.469   0.435   8.457   9.360
   22        0.422   0.403   7.296   8.121
--------------------------------------------------
tot         11.755  13.098 169.088 193.941
 
    CHARGE:  cpu time    0.4891: real time    0.4891
    FORLOC:  cpu time    0.0043: real time    0.0043
    FORNL :  cpu time    2.1636: real time    2.1639
    STRESS:  cpu time    6.4629: real time    6.4633
    FORCOR:  cpu time    0.0236: real time    0.0236
    FORHAR:  cpu time    0.0081: real time    0.0081
    MIXING:  cpu time    0.0040: real time    0.0040
    OFIELD:  cpu time    0.0000: real time    0.0000

  FORCE on cell =-STRESS in cart. coord.  units (eV):
  Direction    XX          YY          ZZ          XY          YZ          ZX
  --------------------------------------------------------------------------------------
  Alpha Z   363.90125   363.90125   363.90125
  Ewald  118657.60219118660.50904************     0.00000     1.17481     0.00000
  Hartree123057.68308123059.69104************     0.00000     1.06715    -0.00000
  E(xc)   -1086.66790 -1086.67233 -1089.91329     0.00012     0.01691     0.00001
  Local  ************************247386.47649     0.00205    -1.99859    -0.00017
  n-local  -110.40280  -110.43035  -131.31753     2.71980     0.22271    -0.23622
  augment  1486.20428  1486.26102  1506.49840    -0.00099    -0.20671     0.00005
  Kinetic  2887.72154  2887.35804  2903.80661     1.77042    -0.30646    -0.53710
  Fock        0.00000     0.00000     0.00000     0.00000     0.00000     0.00000
  -------------------------------------------------------------------------------------
  Total     -10.12475   -10.22594    -5.41148     0.00000    -0.03018     0.00000
  in kB     -20.73305   -20.94025   -11.08140     0.00000    -0.06180     0.00000
  external pressure =      -17.58 kB  Pullay stress =        0.00 kB


 VOLUME and BASIS-vectors are now :
 -----------------------------------------------------------------------------
  energy-cutoff  :      350.00
  volume of cell :      782.41
      direct lattice vectors                 reciprocal lattice vectors
     5.572001436  0.000000000  0.000000000     0.179468726 -0.103616317  0.000000000
     2.786000718  4.825494793  0.000000000     0.000000000  0.207232635  0.000000000
     0.000000000  0.000000000 29.099040242     0.000000000  0.000000000  0.034365395

  length of vectors
     5.572001436  5.572001436 29.099040242     0.207232635  0.207232635  0.034365395


 FORCES acting on ions
    electron-ion (+dipol)            ewald-force                    non-local-force                 convergence-correction
 -----------------------------------------------------------------------------------------------
   0.100E-05 0.134E+01 -.151E+04   -.113E-11 -.146E+01 0.151E+04   0.000E+00 0.123E+00 0.375E+00   -.289E-08 -.159E-03 0.294E-02
   -.247E-03 -.353E+00 -.130E+04   0.324E-11 0.404E+00 0.129E+04   0.000E+00 -.237E-01 0.108E+02   0.314E-10 0.680E-04 -.125E-02
   0.176E-03 -.951E-01 -.228E+04   0.686E-12 0.129E+00 0.233E+04   0.000E+00 -.529E-01 -.571E+02   0.311E-08 0.159E-04 -.120E-02
   0.492E+01 -.279E+01 0.333E+04   -.519E+01 0.296E+01 -.332E+04   0.135E+00 -.823E-01 -.263E+01   0.530E-03 -.371E-03 -.229E-02
   -.154E-06 0.563E+01 0.333E+04   -.147E-11 -.596E+01 -.332E+04   0.000E+00 0.169E+00 -.266E+01   0.124E-08 0.679E-03 -.223E-02
   0.749E-06 -.446E-01 0.333E+04   -.714E-12 0.352E-01 -.333E+04   -.542E-19 0.140E-02 -.248E+01   0.582E-09 0.660E-04 -.172E-02
   0.196E+00 -.204E+00 0.178E+04   -.198E+00 0.189E+00 -.178E+04   0.379E-01 0.180E-01 -.259E-01   0.110E-03 0.795E-04 0.442E-02
   -.196E+00 -.204E+00 0.178E+04   0.198E+00 0.189E+00 -.178E+04   -.379E-01 0.180E-01 -.259E-01   -.110E-03 0.795E-04 0.442E-02
   -.247E-06 0.323E+00 0.178E+04   -.896E-12 -.304E+00 -.178E+04   0.271E-18 -.123E-02 -.484E-02   -.292E-09 -.133E-04 0.427E-02
   -.131E-04 -.114E+02 0.236E+03   0.302E-10 0.118E+02 -.236E+03   0.000E+00 -.143E+00 -.947E-01   -.126E-08 -.200E-03 0.104E-01
   -.492E+01 -.279E+01 0.333E+04   0.519E+01 0.296E+01 -.332E+04   -.135E+00 -.823E-01 -.263E+01   -.530E-03 -.371E-03 -.229E-02
   -.141E+02 0.322E+01 0.235E+03   0.144E+02 -.343E+01 -.236E+03   -.656E-01 0.116E+00 0.216E+00   -.314E-03 0.272E-04 0.103E-01
   0.818E+00 -.828E+00 -.137E+04   -.939E+00 0.908E+00 0.137E+04   0.836E-01 -.652E-01 0.432E+00   -.171E-03 0.281E-04 0.260E-02
   -.818E+00 -.828E+00 -.137E+04   0.939E+00 0.908E+00 0.137E+04   -.836E-01 -.652E-01 0.432E+00   0.171E-03 0.281E-04 0.260E-02
   -.131E-05 0.291E+00 -.140E+04   -.927E-12 -.302E+00 0.140E+04   0.217E-17 -.522E-02 -.395E+00   -.945E-10 0.633E-04 0.250E-02
   0.925E+02 0.483E+02 -.297E+04   -.922E+02 -.479E+02 0.297E+04   -.378E+00 -.347E+00 0.495E+00   -.615E-03 0.901E-04 -.340E-02
   -.925E+02 0.483E+02 -.297E+04   0.922E+02 -.479E+02 0.297E+04   0.378E+00 -.347E+00 0.495E+00   0.615E-03 0.901E-04 -.340E-02
   0.485E-05 -.102E+03 -.296E+04   0.103E-10 0.101E+03 0.296E+04   0.000E+00 0.532E+00 0.563E+00   0.187E-08 0.270E-03 -.384E-02
   0.246E-05 0.565E+01 -.301E+04   -.140E-10 -.594E+01 0.300E+04   0.694E-17 0.167E+00 0.274E+01   0.412E-08 -.469E-03 -.312E-02
   -.756E-06 0.494E+01 0.225E+03   -.123E-10 -.491E+01 -.225E+03   0.000E+00 -.745E-01 -.180E-01   -.982E-10 0.155E-03 0.101E-01
   0.141E+02 0.322E+01 0.235E+03   -.144E+02 -.343E+01 -.236E+03   0.656E-01 0.116E+00 0.216E+00   0.314E-03 0.272E-04 0.103E-01
   0.232E-05 0.882E-01 0.160E+04   0.334E-11 -.671E-01 -.160E+04   0.173E-17 -.492E-01 -.259E-01   0.106E-08 -.128E-03 0.399E-02
 -----------------------------------------------------------------------------------------------
   -.761E-04 0.836E-01 0.513E+02   0.180E-12 -.500E-13 -.273E-11   0.156E-16 -.776E-01 -.513E+02   0.322E-08 0.554E-04 0.440E-01
 
 
 POSITION                                       TOTAL-FORCE (eV/Angst)
 -----------------------------------------------------------------------------------
      4.17900      4.02351     16.84425         0.000000      0.007759      0.165727
      1.39300      0.80425     20.49370        -0.000000      0.026319     -0.121280
      1.39300      0.80425     21.68184         0.000000     -0.019342      0.185597
      2.78600      1.60850     10.00000        -0.137376      0.086037      0.123758
      6.96500      4.02125     10.00000         0.000000     -0.166279      0.122901
      4.17900      4.02125     10.00000         0.000000     -0.008238     -0.024867
      0.00000      0.00000     12.27476         0.035301      0.002489      0.182163
      2.78600      0.00000     12.27476        -0.035301      0.002489      0.182163
      4.17900      2.41275     12.27476         0.000000      0.017727      0.073705
      1.39300      0.80425     14.56601         0.000000      0.252872     -0.328360
      5.57200      1.60850     10.00000         0.137376      0.086037      0.123758
      5.56990      3.21578     14.55975         0.264497     -0.101270     -0.301460
      5.57396      1.60737     16.84425        -0.037172      0.015124     -0.019019
      2.78404      1.60737     16.84425         0.037172      0.015124     -0.019019
      6.96500      4.02125     16.88400        -0.000000     -0.016074     -0.033535
      8.35497      4.82374     19.19963        -0.088265      0.021432      0.052252
      5.57503      4.82374     19.19963         0.088265      0.021432      0.052252
      6.96500      2.41625     19.19963         0.000000      0.055939     -0.109714
      4.17900      2.41275     19.12032        -0.000000     -0.124968      0.049992
      4.17900      0.80668     14.55975         0.000000     -0.044811      0.020663
      2.78810      3.21578     14.55975        -0.264497     -0.101270     -0.301460
      1.39300      2.41275     12.27476         0.000000     -0.028528     -0.076217
 -----------------------------------------------------------------------------------
    total drift:                               -0.000076      0.006048     -0.007232


--------------------------------------------------------------------------------------------------------



  FREE ENERGIE OF THE ION-ELECTRON SYSTEM (eV)
  ---------------------------------------------------
  free  energy   TOTEN  =      -116.10482681 eV

  energy  without entropy=     -115.79141918  energy(sigma->0) =     -116.00035760
 


--------------------------------------------------------------------------------------------------------


    POTLOK:  cpu time    0.0201: real time    0.0202


--------------------------------------------------------------------------------------------------------


     LOOP+:  cpu time  451.2337: real time  451.4823
    4ORBIT:  cpu time    0.0000: real time    0.0000
 


 total charge     
 
# of ion       s       p       d       tot
------------------------------------------
    1        0.431   0.354   9.159   9.944
    2        0.910   1.586   0.000   2.496
    3        1.667   3.531   0.000   5.198
    4        0.455   0.328   8.474   9.258
    5        0.453   0.329   8.477   9.258
    6        0.449   0.323   8.484   9.257
    7        0.470   0.447   8.440   9.356
    8        0.470   0.446   8.436   9.352
    9        0.469   0.448   8.437   9.354
   10        0.474   0.439   8.450   9.363
   11        0.456   0.328   8.476   9.260
   12        0.469   0.435   8.453   9.356
   13        0.456   0.418   8.483   9.356
   14        0.457   0.416   8.474   9.347
   15        0.459   0.404   8.508   9.371
   16        0.471   0.425   8.538   9.433
   17        0.470   0.426   8.545   9.441
   18        0.473   0.430   8.529   9.432
   19        0.440   0.313   8.525   9.278
   20        0.467   0.434   8.448   9.350
   21        0.469   0.435   8.457   9.360
   22        0.422   0.403   7.296   8.121
--------------------------------------------------
tot         11.755  13.098 169.088 193.941
 

 total amount of memory used by VASP MPI-rank0    83272. kBytes
=======================================================================

   base      :      30000. kBytes
   nonlr-proj:       1870. kBytes
   fftplans  :       1543. kBytes
   grid      :       3152. kBytes
   one-center:         62. kBytes
   wavefun   :      46645. kBytes
 
  
  
 General timing and accounting informations for this job:
 ========================================================
  
                  Total CPU time used (sec):      459.535
                            User time (sec):      427.267
                          System time (sec):       32.269
                         Elapsed time (sec):      460.329
  
                   Maximum memory used (kb):      135728.
                   Average memory used (kb):           0.
  
                          Minor page faults:        78680
                          Major page faults:            0
                 Voluntary context switches:          980
