       N       E                     dE             d eps       ncg     rms          rms(c)
DAV:   1     0.953987826098E+03    0.95399E+03   -0.59891E+04 11696   0.927E+02
DAV:   2    -0.445692446788E+02   -0.99856E+03   -0.91437E+03 14192   0.234E+02
DAV:   3    -0.106446975488E+03   -0.61878E+02   -0.58788E+02 13856   0.571E+01
DAV:   4    -0.107832313738E+03   -0.13853E+01   -0.13804E+01 13232   0.907E+00
DAV:   5    -0.107882310173E+03   -0.49996E-01   -0.49966E-01 15296   0.166E+00    0.523E+01
DAV:   6    -0.106296189681E+03    0.15861E+01   -0.35953E+01 13728   0.230E+01    0.431E+01
DAV:   7    -0.176586634733E+03   -0.70290E+02   -0.26131E+02 16080   0.811E+01    0.733E+01
DAV:   8    -0.142786704376E+03    0.33800E+02   -0.18568E+02 14944   0.413E+01    0.513E+01
DAV:   9    -0.124854716250E+03    0.17932E+02   -0.52486E+01 13696   0.355E+01    0.371E+01
DAV:  10    -0.110601656814E+03    0.14253E+02   -0.12302E+02 13584   0.310E+01    0.272E+01
DAV:  11    -0.102752507274E+03    0.78491E+01   -0.35198E+01 13456   0.199E+01    0.163E+01
DAV:  12    -0.102105698540E+03    0.64681E+00   -0.12910E+01 13456   0.121E+01    0.140E+01
DAV:  13    -0.101216295403E+03    0.88940E+00   -0.23672E+00 13344   0.581E+00    0.874E+00
DAV:  14    -0.100816202900E+03    0.40009E+00   -0.10389E+00 13488   0.428E+00    0.776E+00
DAV:  15    -0.100656807678E+03    0.15940E+00   -0.26114E-01 13264   0.157E+00    0.567E+00
DAV:  16    -0.100596531554E+03    0.60276E-01   -0.39451E-01 13472   0.202E+00    0.372E+00
DAV:  17    -0.100555603328E+03    0.40928E-01   -0.21252E-01 12912   0.163E+00    0.171E+00
DAV:  18    -0.100550798475E+03    0.48049E-02   -0.15502E-01 13136   0.146E+00    0.176E+00
DAV:  19    -0.100540248223E+03    0.10550E-01   -0.51049E-02 13280   0.767E-01    0.111E+00
DAV:  20    -0.100535497345E+03    0.47509E-02   -0.13144E-02 13040   0.394E-01    0.900E-01
DAV:  21    -0.100529731208E+03    0.57661E-02   -0.11809E-02 13264   0.391E-01    0.474E-01
DAV:  22    -0.100528078873E+03    0.16523E-02   -0.22418E-03 13328   0.187E-01    0.328E-01
DAV:  23    -0.100527476921E+03    0.60195E-03   -0.11126E-03 13120   0.135E-01    0.240E-01
DAV:  24    -0.100527099718E+03    0.37720E-03   -0.11810E-03 13152   0.144E-01    0.113E-01
DAV:  25    -0.100527249410E+03   -0.14969E-03   -0.36975E-04 10608   0.740E-02    0.909E-02
DAV:  26    -0.100527371055E+03   -0.12164E-03   -0.16640E-04  9072   0.475E-02    0.776E-02
DAV:  27    -0.100527547846E+03   -0.17679E-03   -0.24168E-04  8880   0.550E-02    0.114E-01
DAV:  28    -0.100527604512E+03   -0.56667E-04   -0.14100E-04  8864   0.379E-02
   1 F= -.10052760E+03 E0= -.10051732E+03  d E =-.100528E+03
       N       E                     dE             d eps       ncg     rms          rms(c)
DAV:   1    -0.783492803620E+02    0.22178E+02   -0.19971E+03 11664   0.106E+02    0.139E+01
DAV:   2    -0.817527329495E+02   -0.34035E+01   -0.56801E+01 12784   0.200E+01    0.185E+01
DAV:   3    -0.823694494388E+02   -0.61672E+00   -0.26304E+01 13488   0.175E+01    0.189E+01
DAV:   4    -0.820428868295E+02    0.32656E+00   -0.30043E+01 16800   0.175E+01    0.158E+01
DAV:   5    -0.797683095321E+02    0.22746E+01   -0.82154E+00 12928   0.120E+01    0.705E+00
DAV:   6    -0.795728791250E+02    0.19543E+00   -0.13243E+00 16512   0.438E+00    0.365E+00
DAV:   7    -0.796336282766E+02   -0.60749E-01   -0.11381E+00 13216   0.377E+00    0.491E+00
DAV:   8    -0.795640124536E+02    0.69616E-01   -0.44385E-01 13696   0.270E+00    0.212E+00
DAV:   9    -0.795383257050E+02    0.25687E-01   -0.13691E-01 12896   0.152E+00    0.113E+00
DAV:  10    -0.795311567497E+02    0.71690E-02   -0.54979E-02 13088   0.963E-01    0.560E-01
DAV:  11    -0.795314912255E+02   -0.33448E-03   -0.13689E-02 12704   0.431E-01    0.469E-01
DAV:  12    -0.795317287529E+02   -0.23753E-03   -0.29337E-03 13648   0.201E-01    0.423E-01
DAV:  13    -0.795317332811E+02   -0.45282E-05   -0.20338E-03 12320   0.146E-01    0.308E-01
DAV:  14    -0.795319657396E+02   -0.23246E-03   -0.11902E-03 11392   0.136E-01    0.156E-01
DAV:  15    -0.795320268461E+02   -0.61106E-04   -0.45259E-04  8272   0.780E-02
   2 F= -.79532027E+02 E0= -.79523031E+02  d E =0.209956E+02
       N       E                     dE             d eps       ncg     rms          rms(c)
DAV:   1    -0.102021525893E+03   -0.22490E+02   -0.16248E+03 11648   0.108E+02    0.174E+01
DAV:   2    -0.122291439866E+03   -0.20270E+02   -0.22875E+02 16848   0.450E+01    0.441E+01
DAV:   3    -0.107112145977E+03    0.15179E+02   -0.52163E+01 13360   0.332E+01    0.238E+01
DAV:   4    -0.106274838829E+03    0.83731E+00   -0.31655E+01 13376   0.236E+01    0.236E+01
DAV:   5    -0.101502129719E+03    0.47727E+01   -0.20393E+01 14864   0.143E+01    0.724E+00
DAV:   6    -0.101217207242E+03    0.28492E+00   -0.36389E+00 12720   0.757E+00    0.706E+00
DAV:   7    -0.101089433792E+03    0.12777E+00   -0.71656E-01 13088   0.316E+00    0.505E+00
DAV:   8    -0.101232326677E+03   -0.14289E+00   -0.16500E+00 13392   0.501E+00    0.498E+00
DAV:   9    -0.101042043034E+03    0.19028E+00   -0.15012E+00 13568   0.388E+00    0.249E+00
DAV:  10    -0.101013519193E+03    0.28524E-01   -0.24113E-01 13088   0.193E+00    0.142E+00
DAV:  11    -0.100996748135E+03    0.16771E-01   -0.47880E-02 13072   0.851E-01    0.870E-01
DAV:  12    -0.100997883169E+03   -0.11350E-02   -0.12923E-02 13104   0.421E-01    0.948E-01
DAV:  13    -0.100993959846E+03    0.39233E-02   -0.64546E-03 12880   0.276E-01    0.636E-01
DAV:  14    -0.100991877127E+03    0.20827E-02   -0.36692E-03 13104   0.208E-01    0.409E-01
DAV:  15    -0.100990922045E+03    0.95508E-03   -0.25943E-03 12608   0.180E-01    0.227E-01
DAV:  16    -0.100990964738E+03   -0.42693E-04   -0.51554E-04 10608   0.811E-02
   3 F= -.10099096E+03 E0= -.10098053E+03  d E =-.463360E+00
       N       E                     dE             d eps       ncg     rms          rms(c)
DAV:   1    -0.101185894676E+03   -0.19497E+00   -0.47039E+00 11680   0.523E+00    0.126E+00
DAV:   2    -0.101209291038E+03   -0.23396E-01   -0.18744E-01 13456   0.132E+00    0.221E+00
DAV:   3    -0.101197173445E+03    0.12118E-01   -0.22243E-02 12976   0.447E-01    0.161E+00
DAV:   4    -0.101231281865E+03   -0.34108E-01   -0.12674E-01 12576   0.121E+00    0.243E+00
DAV:   5    -0.101194176114E+03    0.37106E-01   -0.23501E-01 13120   0.158E+00    0.965E-01
DAV:   6    -0.101190086268E+03    0.40898E-02   -0.26176E-02 12992   0.614E-01    0.497E-01
DAV:   7    -0.101189210380E+03    0.87589E-03   -0.42510E-03 13184   0.256E-01    0.265E-01
DAV:   8    -0.101189414961E+03   -0.20458E-03   -0.10982E-03 12176   0.117E-01    0.298E-01
DAV:   9    -0.101189344189E+03    0.70773E-04   -0.54375E-04  8624   0.810E-02
   4 F= -.10118934E+03 E0= -.10117879E+03  d E =-.661740E+00
       N       E                     dE             d eps       ncg     rms          rms(c)
DAV:   1    -0.101350978920E+03   -0.16156E+00   -0.21000E+01 11648   0.112E+01    0.229E+00
DAV:   2    -0.101503974640E+03   -0.15300E+00   -0.10698E+00 13328   0.331E+00    0.526E+00
DAV:   3    -0.101403684111E+03    0.10029E+00   -0.20395E-01 12832   0.135E+00    0.333E+00
DAV:   4    -0.101496809656E+03   -0.93126E-01   -0.37334E-01 13296   0.207E+00    0.452E+00
DAV:   5    -0.101388207313E+03    0.10860E+00   -0.69603E-01 13072   0.278E+00    0.223E+00
DAV:   6    -0.101365345708E+03    0.22862E-01   -0.13318E-01 12944   0.140E+00    0.113E+00
DAV:   7    -0.101359168542E+03    0.61772E-02   -0.23488E-02 13216   0.652E-01    0.426E-01
DAV:   8    -0.101359418748E+03   -0.25021E-03   -0.41219E-03 13072   0.247E-01    0.431E-01
DAV:   9    -0.101359371074E+03    0.47674E-04   -0.12685E-03 13184   0.135E-01    0.434E-01
DAV:  10    -0.101358919083E+03    0.45199E-03   -0.10797E-03 10784   0.115E-01    0.262E-01
DAV:  11    -0.101358762223E+03    0.15686E-03   -0.38773E-04  9840   0.770E-02    0.183E-01
DAV:  12    -0.101358682933E+03    0.79290E-04   -0.18949E-04  9328   0.434E-02
   5 F= -.10135868E+03 E0= -.10134803E+03  d E =-.831078E+00
       N       E                     dE             d eps       ncg     rms          rms(c)
DAV:   1    -0.101105681409E+03    0.25308E+00   -0.21711E+02 11808   0.349E+01    0.441E+00
DAV:   2    -0.101785391351E+03   -0.67971E+00   -0.56598E+00 13312   0.698E+00    0.855E+00
DAV:   3    -0.102052187688E+03   -0.26680E+00   -0.92780E+00 13552   0.926E+00    0.994E+00
DAV:   4    -0.101378622816E+03    0.67356E+00   -0.32442E+00 13520   0.565E+00    0.382E+00
DAV:   5    -0.101312039764E+03    0.66583E-01   -0.40392E-01 13072   0.233E+00    0.133E+00
DAV:   6    -0.101326475962E+03   -0.14436E-01   -0.22326E-01 13120   0.183E+00    0.195E+00
DAV:   7    -0.101306030986E+03    0.20445E-01   -0.95507E-02 12864   0.118E+00    0.827E-01
DAV:   8    -0.101306078282E+03   -0.47296E-04   -0.24880E-02 13264   0.613E-01    0.732E-01
DAV:   9    -0.101304707269E+03    0.13710E-02   -0.13198E-02 12976   0.448E-01    0.563E-01
DAV:  10    -0.101303581344E+03    0.11259E-02   -0.31287E-03 13088   0.200E-01    0.359E-01
DAV:  11    -0.101303163624E+03    0.41772E-03   -0.14825E-03  9968   0.124E-01    0.216E-01
DAV:  12    -0.101303063060E+03    0.10056E-03   -0.44548E-04  8864   0.726E-02    0.135E-01
DAV:  13    -0.101303003388E+03    0.59671E-04   -0.27939E-04  8640   0.607E-02
   6 F= -.10130300E+03 E0= -.10129368E+03  d E =0.556795E-01
       N       E                     dE             d eps       ncg     rms          rms(c)
DAV:   1    -0.101603249500E+03   -0.30019E+00   -0.63961E+01 11872   0.192E+01    0.187E+00
DAV:   2    -0.101730778828E+03   -0.12753E+00   -0.12525E+00 13168   0.321E+00    0.248E+00
DAV:   3    -0.101783592845E+03   -0.52814E-01   -0.10389E+00 13632   0.303E+00    0.373E+00
DAV:   4    -0.101695408110E+03    0.88185E-01   -0.56942E-01 13696   0.218E+00    0.128E+00
DAV:   5    -0.101695970832E+03   -0.56272E-03   -0.14607E-01 12992   0.135E+00    0.119E+00
DAV:   6    -0.101688993916E+03    0.69769E-02   -0.62964E-02 13360   0.972E-01    0.699E-01
DAV:   7    -0.101686202084E+03    0.27918E-02   -0.20464E-02 12736   0.510E-01    0.305E-01
DAV:   8    -0.101685872984E+03    0.32910E-03   -0.43026E-03 13376   0.225E-01    0.199E-01
DAV:   9    -0.101685544647E+03    0.32834E-03   -0.22252E-03 12800   0.168E-01    0.115E-01
DAV:  10    -0.101685488317E+03    0.56330E-04   -0.11674E-03 11792   0.108E-01    0.983E-02
DAV:  11    -0.101685450315E+03    0.38002E-04   -0.30985E-04  8144   0.610E-02
   7 F= -.10168545E+03 E0= -.10167522E+03  d E =-.326767E+00
       N       E                     dE             d eps       ncg     rms          rms(c)
DAV:   1    -0.101751942805E+03   -0.66454E-01   -0.50347E+01 11648   0.189E+01    0.217E+00
DAV:   2    -0.102144789142E+03   -0.39285E+00   -0.23473E+00 13280   0.500E+00    0.750E+00
DAV:   3    -0.101834340816E+03    0.31045E+00   -0.85386E-01 13264   0.277E+00    0.327E+00
DAV:   4    -0.101897157641E+03   -0.62817E-01   -0.35078E-01 12912   0.205E+00    0.412E+00
DAV:   5    -0.101815072664E+03    0.82085E-01   -0.51675E-01 13184   0.244E+00    0.224E+00
DAV:   6    -0.101789336697E+03    0.25736E-01   -0.12377E-01 12992   0.136E+00    0.105E+00
DAV:   7    -0.101784217324E+03    0.51194E-02   -0.24182E-02 13136   0.649E-01    0.382E-01
DAV:   8    -0.101784472631E+03   -0.25531E-03   -0.60012E-03 13072   0.305E-01    0.367E-01
DAV:   9    -0.101784178832E+03    0.29380E-03   -0.22798E-03 13232   0.191E-01    0.356E-01
DAV:  10    -0.101783999118E+03    0.17971E-03   -0.68346E-04 10112   0.998E-02    0.243E-01
DAV:  11    -0.101783816847E+03    0.18227E-03   -0.39137E-04  9504   0.777E-02    0.160E-01
DAV:  12    -0.101783702527E+03    0.11432E-03   -0.30502E-04  8512   0.549E-02    0.773E-02
DAV:  13    -0.101783699373E+03    0.31549E-05   -0.39948E-05  8064   0.213E-02
   8 F= -.10178370E+03 E0= -.10177393E+03  d E =-.982491E-01
       N       E                     dE             d eps       ncg     rms          rms(c)
DAV:   1    -0.101783817193E+03   -0.11467E-03   -0.92190E-02 12048   0.826E-01    0.976E-02
DAV:   2    -0.101787468880E+03   -0.36517E-02   -0.19707E-02 13232   0.425E-01    0.733E-01
DAV:   3    -0.101783896527E+03    0.35724E-02   -0.11246E-02 12880   0.307E-01    0.164E-01
DAV:   4    -0.101783977468E+03   -0.80941E-04   -0.57368E-04  8800   0.906E-02
   9 F= -.10178398E+03 E0= -.10177420E+03  d E =-.985272E-01
       N       E                     dE             d eps       ncg     rms          rms(c)
DAV:   1    -0.101862421439E+03   -0.78525E-01   -0.10254E+01 11648   0.863E+00    0.838E-01
DAV:   2    -0.101921772680E+03   -0.59351E-01   -0.37394E-01 12832   0.190E+00    0.291E+00
DAV:   3    -0.101882523783E+03    0.39249E-01   -0.79407E-02 12784   0.860E-01    0.151E+00
DAV:   4    -0.101892554340E+03   -0.10031E-01   -0.59521E-02 12400   0.873E-01    0.177E+00
DAV:   5    -0.101872343834E+03    0.20211E-01   -0.11428E-01 13104   0.108E+00    0.444E-01
DAV:   6    -0.101872050871E+03    0.29296E-03   -0.10221E-02 12672   0.399E-01    0.306E-01
DAV:   7    -0.101871947129E+03    0.10374E-03   -0.25339E-03 12656   0.196E-01    0.209E-01
DAV:   8    -0.101872025435E+03   -0.78306E-04   -0.74044E-04 11152   0.112E-01
  10 F= -.10187203E+03 E0= -.10186231E+03  d E =-.880480E-01
       N       E                     dE             d eps       ncg     rms          rms(c)
DAV:   1    -0.101922749423E+03   -0.50802E-01   -0.36255E+01 11648   0.163E+01    0.160E+00
DAV:   2    -0.102051835890E+03   -0.12909E+00   -0.92603E-01 12896   0.294E+00    0.408E+00
DAV:   3    -0.101982539344E+03    0.69297E-01   -0.13434E-01 12816   0.113E+00    0.235E+00
DAV:   4    -0.102015169480E+03   -0.32630E-01   -0.18283E-01 12880   0.153E+00    0.292E+00
DAV:   5    -0.101962566744E+03    0.52603E-01   -0.34404E-01 13136   0.193E+00    0.987E-01
DAV:   6    -0.101959087593E+03    0.34792E-02   -0.41924E-02 12624   0.791E-01    0.574E-01
DAV:   7    -0.101958317381E+03    0.77021E-03   -0.93746E-03 12896   0.371E-01    0.412E-01
DAV:   8    -0.101958478049E+03   -0.16067E-03   -0.25275E-03 13216   0.206E-01    0.362E-01
DAV:   9    -0.101957831033E+03    0.64702E-03   -0.18395E-03 11680   0.157E-01    0.200E-01
DAV:  10    -0.101957832747E+03   -0.17137E-05   -0.36847E-04  8976   0.627E-02
  11 F= -.10195783E+03 E0= -.10194775E+03  d E =-.173855E+00
       N       E                     dE             d eps       ncg     rms          rms(c)
DAV:   1    -0.101960240720E+03   -0.24097E-02   -0.41698E+00 11648   0.556E+00    0.568E-01
DAV:   2    -0.101965690176E+03   -0.54495E-02   -0.62128E-02 12336   0.735E-01    0.631E-01
DAV:   3    -0.101965929928E+03   -0.23975E-03   -0.20943E-02 13328   0.469E-01    0.446E-01
DAV:   4    -0.101987112767E+03   -0.21183E-01   -0.15736E-01 14144   0.116E+00    0.177E+00
DAV:   5    -0.101965512510E+03    0.21600E-01   -0.82624E-02 13600   0.848E-01    0.410E-01
DAV:   6    -0.101964885799E+03    0.62671E-03   -0.55757E-03 12496   0.283E-01    0.201E-01
DAV:   7    -0.101964740583E+03    0.14522E-03   -0.15402E-03 11872   0.145E-01    0.706E-02
DAV:   8    -0.101964729320E+03    0.11263E-04   -0.22880E-04  7984   0.570E-02
  12 F= -.10196473E+03 E0= -.10195448E+03  d E =-.180752E+00
       N       E                     dE             d eps       ncg     rms          rms(c)
DAV:   1    -0.102014966683E+03   -0.50226E-01   -0.26364E+01 11648   0.141E+01    0.114E+00
DAV:   2    -0.102172116649E+03   -0.15715E+00   -0.10179E+00 13232   0.309E+00    0.438E+00
DAV:   3    -0.102047710886E+03    0.12441E+00   -0.48336E-01 13168   0.206E+00    0.127E+00
DAV:   4    -0.102061669798E+03   -0.13959E-01   -0.12739E-01 12336   0.120E+00    0.179E+00
DAV:   5    -0.102045657192E+03    0.16013E-01   -0.10269E-01 12560   0.110E+00    0.940E-01
DAV:   6    -0.102041843117E+03    0.38141E-02   -0.28902E-02 12880   0.652E-01    0.495E-01
DAV:   7    -0.102041549323E+03    0.29379E-03   -0.78361E-03 12992   0.345E-01    0.210E-01
DAV:   8    -0.102041534136E+03    0.15187E-04   -0.23995E-03 12896   0.192E-01    0.165E-01
DAV:   9    -0.102041422694E+03    0.11144E-03   -0.38136E-04  8928   0.818E-02    0.127E-01
DAV:  10    -0.102041413880E+03    0.88145E-05   -0.20175E-04  8752   0.483E-02
  13 F= -.10204141E+03 E0= -.10203023E+03  d E =-.766846E-01
       N       E                     dE             d eps       ncg     rms          rms(c)
DAV:   1    -0.102047441891E+03   -0.60192E-02   -0.16743E+01 11648   0.112E+01    0.884E-01
DAV:   2    -0.102123053701E+03   -0.75612E-01   -0.53790E-01 13152   0.221E+00    0.300E+00
DAV:   3    -0.102067386727E+03    0.55667E-01   -0.26190E-01 13072   0.151E+00    0.903E-01
DAV:   4    -0.102077160723E+03   -0.97740E-02   -0.10242E-01 12288   0.104E+00    0.143E+00
DAV:   5    -0.102066367560E+03    0.10793E-01   -0.59949E-02 12144   0.834E-01    0.730E-01
DAV:   6    -0.102064249477E+03    0.21181E-02   -0.17608E-02 12848   0.501E-01    0.399E-01
DAV:   7    -0.102063969722E+03    0.27975E-03   -0.53091E-03 12752   0.276E-01    0.165E-01
DAV:   8    -0.102064012103E+03   -0.42381E-04   -0.15489E-03 12848   0.149E-01    0.123E-01
DAV:   9    -0.102063976620E+03    0.35482E-04   -0.27060E-04  8256   0.648E-02
  14 F= -.10206398E+03 E0= -.10205192E+03  d E =-.992473E-01
       N       E                     dE             d eps       ncg     rms          rms(c)
DAV:   1    -0.102105395263E+03   -0.41383E-01   -0.28013E+01 11648   0.139E+01    0.967E-01
DAV:   2    -0.102187103361E+03   -0.81708E-01   -0.66518E-01 13088   0.245E+00    0.269E+00
DAV:   3    -0.102147246951E+03    0.39856E-01   -0.47812E-01 13280   0.199E+00    0.129E+00
DAV:   4    -0.102139708574E+03    0.75384E-02   -0.79132E-02 12848   0.933E-01    0.718E-01
DAV:   5    -0.102138226425E+03    0.14821E-02   -0.38716E-02 12272   0.719E-01    0.591E-01
DAV:   6    -0.102138144575E+03    0.81849E-04   -0.19796E-02 12400   0.489E-01    0.480E-01
DAV:   7    -0.102137285985E+03    0.85859E-03   -0.99234E-03 12848   0.322E-01    0.161E-01
DAV:   8    -0.102137181403E+03    0.10458E-03   -0.15605E-03 10960   0.126E-01    0.780E-02
DAV:   9    -0.102137137563E+03    0.43839E-04   -0.28788E-04  7952   0.603E-02
  15 F= -.10213714E+03 E0= -.10212436E+03  d E =-.731609E-01
       N       E                     dE             d eps       ncg     rms          rms(c)
DAV:   1    -0.102136740178E+03    0.44122E-03   -0.13563E+01 11648   0.967E+00    0.667E-01
DAV:   2    -0.102172250308E+03   -0.35510E-01   -0.30403E-01 12976   0.165E+00    0.172E+00
DAV:   3    -0.102156149841E+03    0.16100E-01   -0.19786E-01 13376   0.128E+00    0.848E-01
DAV:   4    -0.102153400910E+03    0.27489E-02   -0.41716E-02 12672   0.660E-01    0.527E-01
DAV:   5    -0.102152536647E+03    0.86426E-03   -0.18128E-02 12400   0.478E-01    0.393E-01
DAV:   6    -0.102153060703E+03   -0.52406E-03   -0.88754E-03 12208   0.333E-01    0.352E-01
DAV:   7    -0.102152504972E+03    0.55573E-03   -0.50701E-03 12720   0.241E-01    0.114E-01
DAV:   8    -0.102152455693E+03    0.49279E-04   -0.57185E-04  8704   0.818E-02
  16 F= -.10215246E+03 E0= -.10213933E+03  d E =-.884791E-01
       N       E                     dE             d eps       ncg     rms          rms(c)
DAV:   1    -0.102158038106E+03   -0.55331E-02   -0.42399E+01 11648   0.177E+01    0.113E+00
DAV:   2    -0.102221668191E+03   -0.63630E-01   -0.70636E-01 12896   0.238E+00    0.122E+00
DAV:   3    -0.102218120380E+03    0.35478E-02   -0.87300E-02 13312   0.104E+00    0.885E-01
DAV:   4    -0.102233759400E+03   -0.15639E-01   -0.15167E-01 13472   0.118E+00    0.167E+00
DAV:   5    -0.102222050425E+03    0.11709E-01   -0.22394E-01 13600   0.133E+00    0.109E+00
DAV:   6    -0.102217120342E+03    0.49301E-02   -0.69883E-02 12336   0.856E-01    0.674E-01
DAV:   7    -0.102215193922E+03    0.19264E-02   -0.15902E-02 12720   0.452E-01    0.271E-01
DAV:   8    -0.102214835227E+03    0.35870E-03   -0.31385E-03 12736   0.203E-01    0.111E-01
DAV:   9    -0.102214794859E+03    0.40368E-04   -0.43163E-04  8544   0.700E-02
  17 F= -.10221479E+03 E0= -.10220171E+03  d E =-.623392E-01
       N       E                     dE             d eps       ncg     rms          rms(c)
DAV:   1    -0.102189529555E+03    0.25306E-01   -0.36596E+01 11648   0.165E+01    0.104E+00
DAV:   2    -0.102245230473E+03   -0.55701E-01   -0.61487E-01 12944   0.221E+00    0.114E+00
DAV:   3    -0.102259323342E+03   -0.14093E-01   -0.19177E-01 13392   0.132E+00    0.177E+00
DAV:   4    -0.102253231282E+03    0.60921E-02   -0.30583E-01 13632   0.154E+00    0.146E+00
DAV:   5    -0.102240011425E+03    0.13220E-01   -0.10573E-01 13344   0.973E-01    0.612E-01
DAV:   6    -0.102240855809E+03   -0.84438E-03   -0.25363E-02 12384   0.608E-01    0.596E-01
DAV:   7    -0.102239317843E+03    0.15380E-02   -0.12425E-02 12448   0.418E-01    0.221E-01
DAV:   8    -0.102239034247E+03    0.28360E-03   -0.23978E-03 12528   0.184E-01    0.861E-02
DAV:   9    -0.102239045249E+03   -0.11002E-04   -0.35201E-04  9184   0.628E-02
  18 F= -.10223905E+03 E0= -.10222619E+03  d E =-.865896E-01
       N       E                     dE             d eps       ncg     rms          rms(c)
DAV:   1    -0.102280692255E+03   -0.41658E-01   -0.20729E+01 11648   0.122E+01    0.865E-01
DAV:   2    -0.102327647114E+03   -0.46955E-01   -0.44102E-01 12944   0.194E+00    0.175E+00
DAV:   3    -0.102338750366E+03   -0.11103E-01   -0.49430E-01 13456   0.195E+00    0.217E+00
DAV:   4    -0.102307745979E+03    0.31004E-01   -0.13328E-01 13280   0.110E+00    0.637E-01
DAV:   5    -0.102307080168E+03    0.66581E-03   -0.22144E-02 12240   0.535E-01    0.584E-01
DAV:   6    -0.102306350418E+03    0.72975E-03   -0.12424E-02 12480   0.427E-01    0.375E-01
DAV:   7    -0.102305702786E+03    0.64763E-03   -0.51483E-03 12720   0.285E-01    0.146E-01
DAV:   8    -0.102305701768E+03    0.10180E-05   -0.12285E-03 12704   0.124E-01    0.117E-01
DAV:   9    -0.102305663894E+03    0.37875E-04   -0.30729E-04  8288   0.658E-02
  19 F= -.10230566E+03 E0= -.10229337E+03  d E =-.666186E-01
       N       E                     dE             d eps       ncg     rms          rms(c)
DAV:   1    -0.102267645460E+03    0.38056E-01   -0.76888E+01 11648   0.235E+01    0.170E+00
DAV:   2    -0.102472343396E+03   -0.20470E+00   -0.18916E+00 13248   0.393E+00    0.398E+00
DAV:   3    -0.102482331001E+03   -0.99876E-02   -0.20289E+00 13392   0.393E+00    0.400E+00
DAV:   4    -0.102371954221E+03    0.11038E+00   -0.51419E-01 13328   0.217E+00    0.122E+00
DAV:   5    -0.102367392712E+03    0.45615E-02   -0.85962E-02 12720   0.105E+00    0.105E+00
DAV:   6    -0.102364621956E+03    0.27708E-02   -0.41002E-02 12880   0.788E-01    0.722E-01
DAV:   7    -0.102362064960E+03    0.25570E-02   -0.19791E-02 12928   0.547E-01    0.300E-01
DAV:   8    -0.102362192110E+03   -0.12715E-03   -0.61759E-03 12896   0.280E-01    0.264E-01
DAV:   9    -0.102361922122E+03    0.26999E-03   -0.18564E-03 13328   0.163E-01    0.172E-01
DAV:  10    -0.102361785414E+03    0.13671E-03   -0.76088E-04  8288   0.863E-02    0.887E-02
DAV:  11    -0.102361776083E+03    0.93301E-05   -0.25986E-04  8384   0.572E-02
  20 F= -.10236178E+03 E0= -.10235042E+03  d E =-.122731E+00
       N       E                     dE             d eps       ncg     rms          rms(c)
DAV:   1    -0.102380990262E+03   -0.19205E-01   -0.15712E+01 11648   0.106E+01    0.667E-01
DAV:   2    -0.102416574389E+03   -0.35584E-01   -0.32183E-01 13040   0.164E+00    0.145E+00
DAV:   3    -0.102405778470E+03    0.10796E-01   -0.12151E-01 13440   0.988E-01    0.653E-01
DAV:   4    -0.102407622236E+03   -0.18438E-02   -0.68695E-02 12704   0.764E-01    0.921E-01
DAV:   5    -0.102403254378E+03    0.43679E-02   -0.17862E-02 12176   0.473E-01    0.455E-01
DAV:   6    -0.102403872138E+03   -0.61776E-03   -0.99583E-03 12432   0.359E-01    0.450E-01
DAV:   7    -0.102402623148E+03    0.12490E-02   -0.74872E-03 13120   0.304E-01    0.119E-01
DAV:   8    -0.102402617934E+03    0.52137E-05   -0.78762E-04 10448   0.102E-01
  21 F= -.10240262E+03 E0= -.10239137E+03  d E =-.408419E-01
       N       E                     dE             d eps       ncg     rms          rms(c)
DAV:   1    -0.102391264069E+03    0.11359E-01   -0.21407E+01 11648   0.124E+01    0.768E-01
DAV:   2    -0.102430532019E+03   -0.39268E-01   -0.38912E-01 12992   0.179E+00    0.120E+00
DAV:   3    -0.102434297940E+03   -0.37659E-02   -0.18300E-01 13616   0.120E+00    0.132E+00
DAV:   4    -0.102429737907E+03    0.45600E-02   -0.19513E-01 13504   0.120E+00    0.117E+00
DAV:   5    -0.102422152787E+03    0.75851E-02   -0.28910E-02 12384   0.566E-01    0.529E-01
DAV:   6    -0.102422757489E+03   -0.60470E-03   -0.13709E-02 12496   0.413E-01    0.516E-01
DAV:   7    -0.102421214437E+03    0.15431E-02   -0.10293E-02 13136   0.346E-01    0.138E-01
DAV:   8    -0.102421185789E+03    0.28648E-04   -0.11837E-03 12464   0.128E-01    0.843E-02
DAV:   9    -0.102421203036E+03   -0.17248E-04   -0.25195E-04  8496   0.593E-02
  22 F= -.10242120E+03 E0= -.10241008E+03  d E =-.594270E-01
       N       E                     dE             d eps       ncg     rms          rms(c)
DAV:   1    -0.102441843276E+03   -0.20657E-01   -0.35289E+00 11648   0.461E+00    0.376E-01
DAV:   2    -0.102449410797E+03   -0.75675E-02   -0.73366E-02 12656   0.860E-01    0.789E-01
DAV:   3    -0.102451909392E+03   -0.24986E-02   -0.99109E-02 13360   0.848E-01    0.990E-01
DAV:   4    -0.102445534081E+03    0.63753E-02   -0.30010E-02 12656   0.496E-01    0.240E-01
DAV:   5    -0.102445976176E+03   -0.44209E-03   -0.68179E-03 12192   0.303E-01    0.368E-01
DAV:   6    -0.102445374107E+03    0.60207E-03   -0.26813E-03 12480   0.195E-01    0.175E-01
DAV:   7    -0.102445301196E+03    0.72911E-04   -0.99828E-04 12816   0.119E-01
  23 F= -.10244530E+03 E0= -.10243405E+03  d E =-.240982E-01
       N       E                     dE             d eps       ncg     rms          rms(c)
DAV:   1    -0.102446218907E+03   -0.84480E-03   -0.31792E+01 11648   0.139E+01    0.110E+00
DAV:   2    -0.102508763329E+03   -0.62544E-01   -0.64447E-01 13440   0.256E+00    0.230E+00
DAV:   3    -0.102522652022E+03   -0.13889E-01   -0.65634E-01 13312   0.220E+00    0.256E+00
DAV:   4    -0.102480615480E+03    0.42037E-01   -0.30821E-01 13472   0.156E+00    0.773E-01
DAV:   5    -0.102481741516E+03   -0.11260E-02   -0.83671E-02 12544   0.986E-01    0.104E+00
DAV:   6    -0.102476768225E+03    0.49733E-02   -0.22253E-02 12144   0.579E-01    0.536E-01
DAV:   7    -0.102475781360E+03    0.98687E-03   -0.94608E-03 13168   0.366E-01    0.187E-01
DAV:   8    -0.102475784988E+03   -0.36281E-05   -0.25321E-03 12800   0.203E-01    0.146E-01
DAV:   9    -0.102475660191E+03    0.12480E-03   -0.80165E-04  9408   0.114E-01    0.882E-02
DAV:  10    -0.102475616455E+03    0.43736E-04   -0.24674E-04  7520   0.597E-02
  24 F= -.10247562E+03 E0= -.10246412E+03  d E =-.544134E-01
       N       E                     dE             d eps       ncg     rms          rms(c)
DAV:   1    -0.102481022723E+03   -0.53625E-02   -0.45580E+00 11808   0.534E+00    0.413E-01
DAV:   2    -0.102501216358E+03   -0.20194E-01   -0.15136E-01 13040   0.113E+00    0.142E+00
DAV:   3    -0.102488798108E+03    0.12418E-01   -0.13719E-01 13712   0.101E+00    0.612E-01
DAV:   4    -0.102487711191E+03    0.10869E-02   -0.25571E-02 12720   0.500E-01    0.494E-01
DAV:   5    -0.102486295256E+03    0.14159E-02   -0.42498E-03 12400   0.240E-01    0.159E-01
DAV:   6    -0.102486620373E+03   -0.32512E-03   -0.28545E-03 13296   0.187E-01    0.214E-01
DAV:   7    -0.102486429185E+03    0.19119E-03   -0.21592E-03 12624   0.165E-01    0.954E-02
DAV:   8    -0.102486385919E+03    0.43266E-04   -0.28100E-04  8208   0.620E-02
  25 F= -.10248639E+03 E0= -.10247484E+03  d E =-.107695E-01
       N       E                     dE             d eps       ncg     rms          rms(c)
DAV:   1    -0.102486392836E+03    0.36349E-04   -0.14525E-02 12496   0.302E-01    0.352E-02
DAV:   2    -0.102487220384E+03   -0.82755E-03   -0.47685E-03 10320   0.192E-01    0.332E-01
DAV:   3    -0.102486394229E+03    0.82615E-03   -0.43441E-03  8256   0.176E-01    0.341E-02
DAV:   4    -0.102486412389E+03   -0.18160E-04   -0.74764E-05  7392   0.288E-02
  26 F= -.10248641E+03 E0= -.10247482E+03  d E =-.107959E-01
       N       E                     dE             d eps       ncg     rms          rms(c)
DAV:   1    -0.102498247733E+03   -0.11854E-01   -0.30995E+00 11648   0.422E+00    0.297E-01
DAV:   2    -0.102510367841E+03   -0.12120E-01   -0.91252E-02 13664   0.903E-01    0.123E+00
DAV:   3    -0.102501988310E+03    0.83795E-02   -0.41972E-02 13264   0.554E-01    0.377E-01
DAV:   4    -0.102503009048E+03   -0.10207E-02   -0.12677E-02 12848   0.358E-01    0.526E-01
DAV:   5    -0.102501563130E+03    0.14459E-02   -0.84077E-03 12352   0.293E-01    0.290E-01
DAV:   6    -0.102501265640E+03    0.29749E-03   -0.21930E-03 13264   0.172E-01    0.135E-01
DAV:   7    -0.102501249913E+03    0.15727E-04   -0.97253E-04 12272   0.107E-01
  27 F= -.10250125E+03 E0= -.10248986E+03  d E =-.148375E-01
       N       E                     dE             d eps       ncg     rms          rms(c)
DAV:   1    -0.102490802581E+03    0.10463E-01   -0.27222E+01 11648   0.125E+01    0.898E-01
DAV:   2    -0.102604070820E+03   -0.11327E+00   -0.85776E-01 13664   0.272E+00    0.387E+00
DAV:   3    -0.102524685702E+03    0.79385E-01   -0.39102E-01 13296   0.167E+00    0.109E+00
DAV:   4    -0.102533662135E+03   -0.89764E-02   -0.10252E-01 13200   0.105E+00    0.159E+00
DAV:   5    -0.102520487270E+03    0.13175E-01   -0.77491E-02 12960   0.889E-01    0.865E-01
DAV:   6    -0.102517681096E+03    0.28062E-02   -0.19323E-02 13344   0.515E-01    0.403E-01
DAV:   7    -0.102517249899E+03    0.43120E-03   -0.81569E-03 13056   0.320E-01    0.174E-01
DAV:   8    -0.102517237928E+03    0.11971E-04   -0.22062E-03 12944   0.173E-01    0.151E-01
DAV:   9    -0.102517135983E+03    0.10194E-03   -0.48696E-04  8928   0.915E-02    0.112E-01
DAV:  10    -0.102517155673E+03   -0.19689E-04   -0.21315E-04  8032   0.488E-02
  28 F= -.10251716E+03 E0= -.10250611E+03  d E =-.307433E-01
       N       E                     dE             d eps       ncg     rms          rms(c)
DAV:   1    -0.102505089276E+03    0.12047E-01   -0.68484E+00 11680   0.720E+00    0.893E-01
DAV:   2    -0.102714449558E+03   -0.20936E+00   -0.12992E+00 14048   0.330E+00    0.511E+00
DAV:   3    -0.102513934488E+03    0.20052E+00   -0.11620E+00 13616   0.292E+00    0.104E+00
DAV:   4    -0.102512887891E+03    0.10466E-02   -0.11586E-01 12848   0.113E+00    0.979E-01
DAV:   5    -0.102507566798E+03    0.53211E-02   -0.33976E-02 12848   0.676E-01    0.478E-01
DAV:   6    -0.102506938247E+03    0.62855E-03   -0.42209E-03 12752   0.257E-01    0.303E-01
DAV:   7    -0.102506656206E+03    0.28204E-03   -0.36309E-03 13104   0.226E-01    0.150E-01
DAV:   8    -0.102506674076E+03   -0.17870E-04   -0.13560E-03 11584   0.145E-01    0.962E-02
DAV:   9    -0.102506614866E+03    0.59210E-04   -0.26769E-04  7952   0.695E-02
  29 F= -.10250661E+03 E0= -.10249554E+03  d E =0.105408E-01
       N       E                     dE             d eps       ncg     rms          rms(c)
DAV:   1    -0.102524623186E+03   -0.17949E-01   -0.24293E+00 11728   0.427E+00    0.548E-01
DAV:   2    -0.102598555747E+03   -0.73933E-01   -0.48587E-01 14256   0.192E+00    0.332E+00
DAV:   3    -0.102527799329E+03    0.70756E-01   -0.43551E-01 13600   0.172E+00    0.638E-01
DAV:   4    -0.102527533901E+03    0.26543E-03   -0.46466E-02 12928   0.725E-01    0.658E-01
DAV:   5    -0.102524968950E+03    0.25650E-02   -0.13762E-02 12384   0.418E-01    0.284E-01
DAV:   6    -0.102524803704E+03    0.16525E-03   -0.18055E-03 12864   0.160E-01    0.163E-01
DAV:   7    -0.102524701399E+03    0.10230E-03   -0.10558E-03 12400   0.131E-01    0.764E-02
DAV:   8    -0.102524732852E+03   -0.31454E-04   -0.35873E-04  7808   0.759E-02
  30 F= -.10252473E+03 E0= -.10251364E+03  d E =-.757718E-02
       N       E                     dE             d eps       ncg     rms          rms(c)
DAV:   1    -0.102532353052E+03   -0.76517E-02   -0.25582E+00 11648   0.412E+00    0.277E-01
DAV:   2    -0.102541327533E+03   -0.89745E-02   -0.69685E-02 12848   0.773E-01    0.922E-01
DAV:   3    -0.102535895304E+03    0.54322E-02   -0.27835E-02 13152   0.460E-01    0.199E-01
DAV:   4    -0.102536286489E+03   -0.39119E-03   -0.45586E-03 13008   0.227E-01    0.280E-01
DAV:   5    -0.102535892949E+03    0.39354E-03   -0.36610E-03 12432   0.205E-01    0.179E-01
DAV:   6    -0.102535910464E+03   -0.17514E-04   -0.13458E-03 10976   0.135E-01    0.142E-01
DAV:   7    -0.102535825029E+03    0.85434E-04   -0.77984E-04  8144   0.101E-01
  31 F= -.10253583E+03 E0= -.10252485E+03  d E =-.110922E-01
       N       E                     dE             d eps       ncg     rms          rms(c)
DAV:   1    -0.102530188808E+03    0.57217E-02   -0.10341E+01 11648   0.830E+00    0.572E-01
DAV:   2    -0.102548338796E+03   -0.18150E-01   -0.18070E-01 12864   0.127E+00    0.850E-01
DAV:   3    -0.102550293779E+03   -0.19550E-02   -0.87148E-02 13824   0.814E-01    0.906E-01
DAV:   4    -0.102548001728E+03    0.22921E-02   -0.90364E-02 13392   0.834E-01    0.726E-01
DAV:   5    -0.102545115820E+03    0.28859E-02   -0.18431E-02 12192   0.445E-01    0.410E-01
DAV:   6    -0.102544788732E+03    0.32709E-03   -0.59964E-03 12736   0.278E-01    0.267E-01
DAV:   7    -0.102544511502E+03    0.27723E-03   -0.37449E-03 12784   0.212E-01    0.143E-01
DAV:   8    -0.102544408173E+03    0.10333E-03   -0.69627E-04  9296   0.977E-02    0.604E-02
DAV:   9    -0.102544382804E+03    0.25369E-04   -0.25318E-04  7696   0.494E-02
  32 F= -.10254438E+03 E0= -.10253333E+03  d E =-.196500E-01
       N       E                     dE             d eps       ncg     rms          rms(c)
DAV:   1    -0.102550291553E+03   -0.58834E-02   -0.16058E+00 11648   0.345E+00    0.263E-01
DAV:   2    -0.102552837387E+03   -0.25458E-02   -0.29781E-02 12720   0.503E-01    0.204E-01
DAV:   3    -0.102553689098E+03   -0.85171E-03   -0.80321E-03 12160   0.310E-01    0.357E-01
DAV:   4    -0.102554292496E+03   -0.60340E-03   -0.19250E-02 11744   0.394E-01    0.472E-01
DAV:   5    -0.102552820179E+03    0.14723E-02   -0.11589E-02 12112   0.287E-01    0.158E-01
DAV:   6    -0.102552840318E+03   -0.20138E-04   -0.10516E-03 10592   0.115E-01    0.111E-01
DAV:   7    -0.102552793645E+03    0.46673E-04   -0.55633E-04  8656   0.802E-02
  33 F= -.10255279E+03 E0= -.10254173E+03  d E =-.841084E-02
       N       E                     dE             d eps       ncg     rms          rms(c)
DAV:   1    -0.102550437153E+03    0.24032E-02   -0.14442E+01 11648   0.103E+01    0.782E-01
DAV:   2    -0.102581793815E+03   -0.31357E-01   -0.31036E-01 12976   0.161E+00    0.129E+00
DAV:   3    -0.102589620576E+03   -0.78268E-02   -0.26506E-01 13504   0.140E+00    0.160E+00
DAV:   4    -0.102576844718E+03    0.12776E-01   -0.16672E-01 13344   0.116E+00    0.799E-01
DAV:   5    -0.102572658983E+03    0.41857E-02   -0.33966E-02 12704   0.634E-01    0.409E-01
DAV:   6    -0.102572794545E+03   -0.13556E-03   -0.80407E-03 12800   0.340E-01    0.319E-01
DAV:   7    -0.102572391070E+03    0.40348E-03   -0.52373E-03 13088   0.245E-01    0.135E-01
DAV:   8    -0.102572345199E+03    0.45870E-04   -0.85476E-04 10848   0.114E-01
  34 F= -.10257235E+03 E0= -.10256106E+03  d E =-.279624E-01
       N       E                     dE             d eps       ncg     rms          rms(c)
DAV:   1    -0.102498559486E+03    0.73832E-01   -0.57692E+01 11648   0.207E+01    0.156E+00
DAV:   2    -0.102627184993E+03   -0.12863E+00   -0.12422E+00 13184   0.322E+00    0.262E+00
DAV:   3    -0.102645521025E+03   -0.18336E-01   -0.97488E-01 13520   0.270E+00    0.296E+00
DAV:   4    -0.102608617721E+03    0.36903E-01   -0.62784E-01 13344   0.225E+00    0.171E+00
DAV:   5    -0.102587435947E+03    0.21182E-01   -0.14683E-01 13072   0.131E+00    0.780E-01
DAV:   6    -0.102588430878E+03   -0.99493E-03   -0.32639E-02 12832   0.666E-01    0.684E-01
DAV:   7    -0.102586331691E+03    0.20992E-02   -0.21947E-02 13152   0.496E-01    0.255E-01
DAV:   8    -0.102586176651E+03    0.15504E-03   -0.26897E-03 12560   0.208E-01    0.130E-01
DAV:   9    -0.102586084030E+03    0.92621E-04   -0.64155E-04 10848   0.107E-01
  35 F= -.10258608E+03 E0= -.10257452E+03  d E =-.417012E-01
       N       E                     dE             d eps       ncg     rms          rms(c)
DAV:   1    -0.102590520439E+03   -0.43438E-02   -0.55751E-01 11728   0.199E+00    0.171E-01
DAV:   2    -0.102592694727E+03   -0.21743E-02   -0.17440E-02 12896   0.380E-01    0.445E-01
DAV:   3    -0.102591868419E+03    0.82631E-03   -0.15420E-02 13392   0.344E-01    0.253E-01
DAV:   4    -0.102591630093E+03    0.23833E-03   -0.49146E-03 11008   0.208E-01    0.156E-01
DAV:   5    -0.102591531661E+03    0.98432E-04   -0.10225E-03  8432   0.110E-01    0.726E-02
DAV:   6    -0.102591574105E+03   -0.42444E-04   -0.47486E-04  8096   0.847E-02
  36 F= -.10259157E+03 E0= -.10257999E+03  d E =-.549008E-02
       N       E                     dE             d eps       ncg     rms          rms(c)
DAV:   1    -0.102591742063E+03   -0.21040E-03   -0.49926E+00 11648   0.597E+00    0.474E-01
DAV:   2    -0.102604033705E+03   -0.12292E-01   -0.11254E-01 12896   0.971E-01    0.871E-01
DAV:   3    -0.102604126859E+03   -0.93154E-04   -0.90871E-02 13584   0.848E-01    0.842E-01
DAV:   4    -0.102600569720E+03    0.35571E-02   -0.47929E-02 12832   0.609E-01    0.473E-01
DAV:   5    -0.102599492910E+03    0.10768E-02   -0.80412E-03 12656   0.294E-01    0.187E-01
DAV:   6    -0.102599984428E+03   -0.49152E-03   -0.37482E-03 12640   0.235E-01    0.260E-01
DAV:   7    -0.102599593737E+03    0.39069E-03   -0.28143E-03 11856   0.192E-01    0.932E-02
DAV:   8    -0.102599545011E+03    0.48726E-04   -0.35135E-04  7856   0.722E-02
  37 F= -.10259955E+03 E0= -.10258795E+03  d E =-.134610E-01
       N       E                     dE             d eps       ncg     rms          rms(c)
DAV:   1    -0.102603171388E+03   -0.35777E-02   -0.10151E-01 11728   0.798E-01    0.618E-02
DAV:   2    -0.102603376510E+03   -0.20512E-03   -0.19452E-03 12976   0.141E-01    0.106E-01
DAV:   3    -0.102603362650E+03    0.13860E-04   -0.73123E-04  7696   0.817E-02
  38 F= -.10260336E+03 E0= -.10259187E+03  d E =-.381764E-02
       N       E                     dE             d eps       ncg     rms          rms(c)
DAV:   1    -0.102612187097E+03   -0.88106E-02   -0.91798E-01 11648   0.240E+00    0.249E-01
DAV:   2    -0.102625531591E+03   -0.13344E-01   -0.82215E-02 12848   0.834E-01    0.125E+00
DAV:   3    -0.102614466782E+03    0.11065E-01   -0.10080E-01 13648   0.887E-01    0.461E-01
DAV:   4    -0.102613699045E+03    0.76774E-03   -0.38404E-03 12816   0.191E-01    0.247E-01
DAV:   5    -0.102613448215E+03    0.25083E-03   -0.25255E-03 11888   0.180E-01    0.171E-01
DAV:   6    -0.102613332892E+03    0.11532E-03   -0.96415E-04  9088   0.110E-01    0.741E-02
DAV:   7    -0.102613352098E+03   -0.19206E-04   -0.29058E-04  7872   0.566E-02
  39 F= -.10261335E+03 E0= -.10260178E+03  d E =-.138071E-01
       N       E                     dE             d eps       ncg     rms          rms(c)
DAV:   1    -0.102622553903E+03   -0.92210E-02   -0.36454E+00 11648   0.478E+00    0.351E-01
DAV:   2    -0.102630342830E+03   -0.77889E-02   -0.70827E-02 13152   0.816E-01    0.712E-01
DAV:   3    -0.102627812198E+03    0.25306E-02   -0.21261E-02 13296   0.419E-01    0.272E-01
DAV:   4    -0.102629434764E+03   -0.16226E-02   -0.19640E-02 13024   0.420E-01    0.563E-01
DAV:   5    -0.102627725768E+03    0.17090E-02   -0.75728E-03 12000   0.279E-01    0.257E-01
DAV:   6    -0.102627684476E+03    0.41292E-04   -0.25574E-03 12928   0.184E-01    0.174E-01
DAV:   7    -0.102627567777E+03    0.11670E-03   -0.14265E-03 10032   0.132E-01    0.765E-02
DAV:   8    -0.102627541045E+03    0.26732E-04   -0.22789E-04  7632   0.558E-02
  40 F= -.10262754E+03 E0= -.10261608E+03  d E =-.279960E-01
       N       E                     dE             d eps       ncg     rms          rms(c)
DAV:   1    -0.102613005166E+03    0.14563E-01   -0.14545E+01 11648   0.954E+00    0.704E-01
DAV:   2    -0.102642588602E+03   -0.29583E-01   -0.27136E-01 13248   0.160E+00    0.135E+00
DAV:   3    -0.102634054686E+03    0.85339E-02   -0.75662E-02 13424   0.789E-01    0.520E-01
DAV:   4    -0.102640819115E+03   -0.67644E-02   -0.79511E-02 13312   0.839E-01    0.116E+00
DAV:   5    -0.102633428002E+03    0.73911E-02   -0.29390E-02 12032   0.538E-01    0.489E-01
DAV:   6    -0.102633504842E+03   -0.76840E-04   -0.10482E-02 13472   0.369E-01    0.364E-01
DAV:   7    -0.102632807423E+03    0.69742E-03   -0.58748E-03 12384   0.276E-01    0.149E-01
DAV:   8    -0.102632686902E+03    0.12052E-03   -0.85444E-04  9856   0.107E-01    0.585E-02
DAV:   9    -0.102632696813E+03   -0.99112E-05   -0.29304E-04  7824   0.533E-02
  41 F= -.10263270E+03 E0= -.10262135E+03  d E =-.331518E-01
       N       E                     dE             d eps       ncg     rms          rms(c)
DAV:   1    -0.102632289871E+03    0.39703E-03   -0.16885E+00 11648   0.325E+00    0.233E-01
DAV:   2    -0.102642360077E+03   -0.10070E-01   -0.67389E-02 13136   0.773E-01    0.108E+00
DAV:   3    -0.102634795769E+03    0.75643E-02   -0.25773E-02 12944   0.458E-01    0.282E-01
DAV:   4    -0.102634960556E+03   -0.16479E-03   -0.28066E-03 12960   0.192E-01    0.302E-01
DAV:   5    -0.102634470498E+03    0.49006E-03   -0.27259E-03 12976   0.169E-01    0.118E-01
DAV:   6    -0.102634601183E+03   -0.13068E-03   -0.91895E-04 10496   0.110E-01    0.116E-01
DAV:   7    -0.102634538491E+03    0.62692E-04   -0.51575E-04  8096   0.859E-02
  42 F= -.10263454E+03 E0= -.10262325E+03  d E =-.349935E-01
       N       E                     dE             d eps       ncg     rms          rms(c)
DAV:   1    -0.102642789431E+03   -0.81882E-02   -0.92190E-01 11648   0.236E+00    0.177E-01
DAV:   2    -0.102646498896E+03   -0.37095E-02   -0.27274E-02 13104   0.495E-01    0.608E-01
DAV:   3    -0.102644129858E+03    0.23690E-02   -0.21076E-02 13200   0.405E-01    0.220E-01
DAV:   4    -0.102644016584E+03    0.11327E-03   -0.23584E-03 12480   0.151E-01    0.128E-01
DAV:   5    -0.102643969875E+03    0.46709E-04   -0.92679E-04 10336   0.995E-02
  43 F= -.10264397E+03 E0= -.10263276E+03  d E =-.943138E-02
       N       E                     dE             d eps       ncg     rms          rms(c)
DAV:   1    -0.102649354632E+03   -0.53380E-02   -0.82486E+00 11648   0.706E+00    0.516E-01
DAV:   2    -0.102668960960E+03   -0.19606E-01   -0.16468E-01 13168   0.124E+00    0.121E+00
DAV:   3    -0.102662967087E+03    0.59939E-02   -0.10262E-01 13568   0.897E-01    0.717E-01
DAV:   4    -0.102662131740E+03    0.83535E-03   -0.41661E-02 13104   0.632E-01    0.561E-01
DAV:   5    -0.102660371163E+03    0.17606E-02   -0.14580E-02 12592   0.414E-01    0.232E-01
DAV:   6    -0.102660955562E+03   -0.58440E-03   -0.55921E-03 13344   0.260E-01    0.272E-01
DAV:   7    -0.102660599407E+03    0.35615E-03   -0.27886E-03 12656   0.177E-01    0.734E-02
DAV:   8    -0.102660588375E+03    0.11031E-04   -0.26489E-04  8320   0.602E-02
  44 F= -.10266059E+03 E0= -.10264968E+03  d E =-.260499E-01
       N       E                     dE             d eps       ncg     rms          rms(c)
DAV:   1    -0.102660049760E+03    0.54965E-03   -0.14447E+00 11648   0.295E+00    0.217E-01
DAV:   2    -0.102663495511E+03   -0.34458E-02   -0.28926E-02 12992   0.524E-01    0.499E-01
DAV:   3    -0.102662417872E+03    0.10776E-02   -0.17920E-02 13280   0.374E-01    0.292E-01
DAV:   4    -0.102662273198E+03    0.14467E-03   -0.64956E-03 12384   0.248E-01    0.214E-01
DAV:   5    -0.102662094429E+03    0.17877E-03   -0.24346E-03 10864   0.174E-01    0.120E-01
DAV:   6    -0.102662156833E+03   -0.62403E-04   -0.10097E-03  9792   0.119E-01    0.101E-01
DAV:   7    -0.102662146651E+03    0.10182E-04   -0.45246E-04  8608   0.746E-02
  45 F= -.10266215E+03 E0= -.10265131E+03  d E =-.276082E-01
       N       E                     dE             d eps       ncg     rms          rms(c)
DAV:   1    -0.102664277914E+03   -0.21211E-02   -0.38071E+00 11648   0.514E+00    0.438E-01
DAV:   2    -0.102678903501E+03   -0.14626E-01   -0.11862E-01 13120   0.989E-01    0.114E+00
DAV:   3    -0.102670575314E+03    0.83282E-02   -0.57004E-02 13088   0.673E-01    0.266E-01
DAV:   4    -0.102671805589E+03   -0.12303E-02   -0.13059E-02 12384   0.375E-01    0.467E-01
DAV:   5    -0.102670720734E+03    0.10849E-02   -0.62380E-03 12176   0.286E-01    0.223E-01
DAV:   6    -0.102670889472E+03   -0.16874E-03   -0.17526E-03 12768   0.156E-01    0.157E-01
DAV:   7    -0.102670796087E+03    0.93385E-04   -0.13085E-03 10944   0.134E-01    0.839E-02
DAV:   8    -0.102670780711E+03    0.15376E-04   -0.23594E-04  8144   0.565E-02
  46 F= -.10267078E+03 E0= -.10266012E+03  d E =-.863406E-02
       N       E                     dE             d eps       ncg     rms          rms(c)
DAV:   1    -0.102670797562E+03   -0.14748E-05   -0.60120E-02 11680   0.645E-01    0.697E-02
DAV:   2    -0.102671116515E+03   -0.31895E-03   -0.24190E-03 12352   0.146E-01    0.164E-01
DAV:   3    -0.102671145279E+03   -0.28764E-04   -0.41167E-03  8448   0.180E-01    0.187E-01
DAV:   4    -0.102670965664E+03    0.17962E-03   -0.82653E-04  7792   0.817E-02    0.768E-02
DAV:   5    -0.102670949822E+03    0.15842E-04   -0.16869E-04  7168   0.475E-02
  47 F= -.10267095E+03 E0= -.10266030E+03  d E =-.880317E-02
       N       E                     dE             d eps       ncg     rms          rms(c)
DAV:   1    -0.102675452628E+03   -0.44870E-02   -0.86028E-01 11664   0.232E+00    0.232E-01
DAV:   2    -0.102678671967E+03   -0.32193E-02   -0.26675E-02 13360   0.505E-01    0.565E-01
DAV:   3    -0.102678432528E+03    0.23944E-03   -0.37624E-02 13200   0.537E-01    0.543E-01
DAV:   4    -0.102676628304E+03    0.18042E-02   -0.80087E-03 12080   0.261E-01    0.160E-01
DAV:   5    -0.102676778501E+03   -0.15020E-03   -0.19172E-03 12400   0.163E-01    0.194E-01
DAV:   6    -0.102676641937E+03    0.13656E-03   -0.13254E-03  9424   0.140E-01    0.105E-01
DAV:   7    -0.102676633139E+03    0.87980E-05   -0.42585E-04  8704   0.783E-02
  48 F= -.10267663E+03 E0= -.10266611E+03  d E =-.568332E-02
       N       E                     dE             d eps       ncg     rms          rms(c)
DAV:   1    -0.102677187732E+03   -0.54579E-03   -0.13794E+00 11664   0.294E+00    0.287E-01
DAV:   2    -0.102681131398E+03   -0.39437E-02   -0.36454E-02 13408   0.603E-01    0.598E-01
DAV:   3    -0.102681998135E+03   -0.86674E-03   -0.46043E-02 13264   0.600E-01    0.685E-01
DAV:   4    -0.102679025308E+03    0.29728E-02   -0.15909E-02 12320   0.361E-01    0.185E-01
DAV:   5    -0.102679292341E+03   -0.26703E-03   -0.36269E-03 12272   0.217E-01    0.241E-01
DAV:   6    -0.102679043160E+03    0.24918E-03   -0.18566E-03 11488   0.170E-01    0.126E-01
DAV:   7    -0.102679026018E+03    0.17142E-04   -0.47704E-04  9024   0.908E-02
  49 F= -.10267903E+03 E0= -.10266868E+03  d E =-.807620E-02
       N       E                     dE             d eps       ncg     rms          rms(c)
DAV:   1    -0.102680218249E+03   -0.11751E-02   -0.20287E-01 11664   0.121E+00    0.984E-02
DAV:   2    -0.102680572444E+03   -0.35419E-03   -0.39557E-03 12336   0.187E-01    0.914E-02
DAV:   3    -0.102680604047E+03   -0.31604E-04   -0.92322E-04  8720   0.107E-01
  50 F= -.10268060E+03 E0= -.10267033E+03  d E =-.157803E-02
       N       E                     dE             d eps       ncg     rms          rms(c)
DAV:   1    -0.102681111572E+03   -0.53913E-03   -0.18283E+00 11648   0.364E+00    0.364E-01
DAV:   2    -0.102721758986E+03   -0.40647E-01   -0.24089E-01 13120   0.143E+00    0.220E+00
DAV:   3    -0.102683882234E+03    0.37877E-01   -0.22609E-01 13840   0.133E+00    0.343E-01
DAV:   4    -0.102683910984E+03   -0.28750E-04   -0.60754E-03 13232   0.270E-01    0.233E-01
DAV:   5    -0.102683634000E+03    0.27698E-03   -0.21246E-03 13184   0.182E-01    0.103E-01
DAV:   6    -0.102683768812E+03   -0.13481E-03   -0.11354E-03 11472   0.131E-01    0.131E-01
DAV:   7    -0.102683712328E+03    0.56484E-04   -0.76100E-04  8064   0.106E-01
  51 F= -.10268371E+03 E0= -.10267350E+03  d E =-.468631E-02
       N       E                     dE             d eps       ncg     rms          rms(c)
DAV:   1    -0.102685194767E+03   -0.14260E-02   -0.21604E-01 11648   0.115E+00    0.919E-02
DAV:   2    -0.102687693533E+03   -0.24988E-02   -0.15204E-02 12704   0.360E-01    0.568E-01
DAV:   3    -0.102685486646E+03    0.22069E-02   -0.75713E-03 12608   0.244E-01    0.121E-01
DAV:   4    -0.102685468956E+03    0.17689E-04   -0.45024E-04  8912   0.794E-02
  52 F= -.10268547E+03 E0= -.10267520E+03  d E =-.175663E-02
       N       E                     dE             d eps       ncg     rms          rms(c)
DAV:   1    -0.102686034117E+03   -0.54747E-03   -0.79802E-01 11648   0.220E+00    0.181E-01
DAV:   2    -0.102687535246E+03   -0.15011E-02   -0.14212E-02 12864   0.364E-01    0.341E-01
DAV:   3    -0.102686970396E+03    0.56485E-03   -0.32863E-03 12992   0.164E-01    0.124E-01
DAV:   4    -0.102687538449E+03   -0.56805E-03   -0.37812E-03 12624   0.196E-01    0.303E-01
DAV:   5    -0.102686952750E+03    0.58570E-03   -0.27452E-03 10368   0.167E-01    0.106E-01
DAV:   6    -0.102687003570E+03   -0.50819E-04   -0.71178E-04  8848   0.976E-02
  53 F= -.10268700E+03 E0= -.10267683E+03  d E =-.329124E-02
       N       E                     dE             d eps       ncg     rms          rms(c)
DAV:   1    -0.102687717188E+03   -0.76444E-03   -0.15357E-01 11648   0.107E+00    0.105E-01
DAV:   2    -0.102688386928E+03   -0.66974E-03   -0.54010E-03 13280   0.233E-01    0.255E-01
DAV:   3    -0.102688459021E+03   -0.72094E-04   -0.87220E-03 13344   0.267E-01    0.295E-01
DAV:   4    -0.102687918987E+03    0.54003E-03   -0.25179E-03  7872   0.143E-01    0.851E-02
DAV:   5    -0.102687926661E+03   -0.76748E-05   -0.32428E-04  7632   0.679E-02
  54 F= -.10268793E+03 E0= -.10267765E+03  d E =-.923092E-03
       N       E                     dE             d eps       ncg     rms          rms(c)
DAV:   1    -0.102688082326E+03   -0.16334E-03   -0.40150E-01 11648   0.172E+00    0.175E-01
DAV:   2    -0.102690878462E+03   -0.27961E-02   -0.20257E-02 13456   0.427E-01    0.570E-01
DAV:   3    -0.102689460225E+03    0.14182E-02   -0.30654E-02 13456   0.488E-01    0.391E-01
DAV:   4    -0.102688622811E+03    0.83741E-03   -0.51514E-03 11920   0.221E-01    0.168E-01
DAV:   5    -0.102688498537E+03    0.12427E-03   -0.10593E-03 10048   0.121E-01    0.999E-02
DAV:   6    -0.102688491163E+03    0.73742E-05   -0.27131E-04  8208   0.602E-02
  55 F= -.10268849E+03 E0= -.10267825E+03  d E =-.148759E-02
       N       E                     dE             d eps       ncg     rms          rms(c)
DAV:   1    -0.102688930927E+03   -0.43239E-03   -0.57344E-02 11648   0.656E-01    0.560E-02
DAV:   2    -0.102689102627E+03   -0.17170E-03   -0.15924E-03 12896   0.117E-01    0.122E-01
DAV:   3    -0.102689107898E+03   -0.52717E-05   -0.17325E-03  7552   0.117E-01    0.127E-01
DAV:   4    -0.102689009116E+03    0.98782E-04   -0.77551E-04  7104   0.805E-02
  56 F= -.10268901E+03 E0= -.10267885E+03  d E =-.517953E-03
       N       E                     dE             d eps       ncg     rms          rms(c)
DAV:   1    -0.102689687890E+03   -0.57999E-03   -0.51983E-01 11648   0.197E+00    0.157E-01
DAV:   2    -0.102691811699E+03   -0.21238E-02   -0.16158E-02 12576   0.376E-01    0.463E-01
DAV:   3    -0.102690504019E+03    0.13077E-02   -0.13276E-02 13152   0.324E-01    0.196E-01
DAV:   4    -0.102690488038E+03    0.15982E-04   -0.32361E-03 11296   0.184E-01    0.162E-01
DAV:   5    -0.102690328017E+03    0.16002E-03   -0.12487E-03  9168   0.127E-01    0.709E-02
DAV:   6    -0.102690350770E+03   -0.22753E-04   -0.34805E-04  8048   0.707E-02
  57 F= -.10269035E+03 E0= -.10268015E+03  d E =-.185961E-02
       N       E                     dE             d eps       ncg     rms          rms(c)
DAV:   1    -0.102690764527E+03   -0.43651E-03   -0.37309E-02 12288   0.477E-01    0.549E-02
DAV:   2    -0.102690913962E+03   -0.14944E-03   -0.12655E-03 13344   0.123E-01    0.129E-01
DAV:   3    -0.102690927109E+03   -0.13147E-04   -0.18748E-03  8336   0.130E-01    0.148E-01
DAV:   4    -0.102690794053E+03    0.13306E-03   -0.54080E-04  7136   0.654E-02    0.435E-02
DAV:   5    -0.102690801807E+03   -0.77535E-05   -0.70693E-05  7328   0.311E-02
  58 F= -.10269080E+03 E0= -.10268067E+03  d E =-.451037E-03
       N       E                     dE             d eps       ncg     rms          rms(c)
DAV:   1    -0.102690947112E+03   -0.15306E-03   -0.63546E-02 12096   0.620E-01    0.720E-02
DAV:   2    -0.102691437362E+03   -0.49025E-03   -0.34009E-03 13728   0.179E-01    0.241E-01
DAV:   3    -0.102691236469E+03    0.20089E-03   -0.61022E-03 10672   0.218E-01    0.197E-01
DAV:   4    -0.102691029941E+03    0.20653E-03   -0.73616E-04  7520   0.823E-02    0.875E-02
DAV:   5    -0.102691013691E+03    0.16250E-04   -0.11714E-04  7984   0.415E-02
  59 F= -.10269101E+03 E0= -.10268091E+03  d E =-.662921E-03
