       N       E                     dE             d eps       ncg     rms          rms(c)
DAV:   1     0.926975620809E+03    0.92698E+03   -0.57603E+04  3840   0.103E+03
DAV:   2    -0.508275027065E+02   -0.97780E+03   -0.95023E+03  5592   0.242E+02
DAV:   3    -0.979042318309E+02   -0.47077E+02   -0.45673E+02  4728   0.544E+01
DAV:   4    -0.988981084294E+02   -0.99388E+00   -0.99048E+00  5400   0.853E+00
DAV:   5    -0.989258090635E+02   -0.27701E-01   -0.27678E-01  5832   0.113E+00    0.447E+01
DAV:   6    -0.950396564551E+02    0.38862E+01   -0.27777E+01  4560   0.185E+01    0.314E+01
DAV:   7    -0.120335182445E+03   -0.25296E+02   -0.15058E+02  4608   0.531E+01    0.449E+01
DAV:   8    -0.941058246673E+02    0.26229E+02   -0.50571E+01  4848   0.291E+01    0.125E+01
DAV:   9    -0.936122731895E+02    0.49355E+00   -0.26569E+01  4800   0.186E+01    0.113E+01
DAV:  10    -0.928171861381E+02    0.79509E+00   -0.36424E+00  4680   0.753E+00    0.304E+00
DAV:  11    -0.928060747313E+02    0.11111E-01   -0.89258E-01  5232   0.260E+00    0.281E+00
DAV:  12    -0.927683936222E+02    0.37681E-01   -0.25539E-01  4920   0.150E+00    0.146E+00
DAV:  13    -0.927692017819E+02   -0.80816E-03   -0.35652E-02  5328   0.599E-01    0.108E+00
DAV:  14    -0.927668502181E+02    0.23516E-02   -0.53141E-02  4992   0.816E-01    0.652E-01
DAV:  15    -0.927653253835E+02    0.15248E-02   -0.14775E-02  5016   0.426E-01    0.338E-01
DAV:  16    -0.927647664428E+02    0.55894E-03   -0.24044E-03  4656   0.145E-01    0.108E-01
DAV:  17    -0.927647298965E+02    0.36546E-04   -0.62210E-04  3264   0.720E-02
   1 F= -.92764730E+02 E0= -.92753073E+02  d E =-.927647E+02
       N       E                     dE             d eps       ncg     rms          rms(c)
DAV:   1    -0.927857257928E+02   -0.20959E-01   -0.13903E+01  3840   0.965E+00    0.762E-01
DAV:   2    -0.929314096227E+02   -0.14568E+00   -0.11539E+00  4392   0.324E+00    0.420E+00
DAV:   3    -0.928215821699E+02    0.10983E+00   -0.32434E-01  4584   0.161E+00    0.176E+00
DAV:   4    -0.928048187177E+02    0.16763E-01   -0.81987E-02  4944   0.893E-01    0.110E+00
DAV:   5    -0.927990732995E+02    0.57454E-02   -0.48017E-02  4704   0.730E-01    0.467E-01
DAV:   6    -0.927995281379E+02   -0.45484E-03   -0.11195E-02  4704   0.389E-01    0.364E-01
DAV:   7    -0.927985308478E+02    0.99729E-03   -0.57909E-03  4896   0.285E-01    0.176E-01
DAV:   8    -0.927983137252E+02    0.21712E-03   -0.10493E-03  4344   0.102E-01    0.121E-01
DAV:   9    -0.927983214652E+02   -0.77400E-05   -0.55578E-05  2136   0.246E-02
   2 F= -.92798321E+02 E0= -.92786825E+02  d E =-.335916E-01
       N       E                     dE             d eps       ncg     rms          rms(c)
DAV:   1    -0.928004058495E+02   -0.20921E-02   -0.26175E+00  3840   0.416E+00    0.338E-01
DAV:   2    -0.928132989837E+02   -0.12893E-01   -0.10976E-01  4608   0.103E+00    0.118E+00
DAV:   3    -0.928064648372E+02    0.68341E-02   -0.14989E-02  4704   0.369E-01    0.693E-01
DAV:   4    -0.928043605626E+02    0.21043E-02   -0.13152E-02  4704   0.380E-01    0.517E-01
DAV:   5    -0.928030561708E+02    0.13044E-02   -0.70365E-03  4704   0.282E-01    0.223E-01
DAV:   6    -0.928032650683E+02   -0.20890E-03   -0.20814E-03  4512   0.163E-01    0.175E-01
DAV:   7    -0.928030772901E+02    0.18778E-03   -0.11427E-03  3648   0.127E-01    0.938E-02
DAV:   8    -0.928030266984E+02    0.50592E-04   -0.26012E-04  2592   0.561E-02
   3 F= -.92803027E+02 E0= -.92791594E+02  d E =-.382968E-01
       N       E                     dE             d eps       ncg     rms          rms(c)
DAV:   1    -0.928123658101E+02   -0.92885E-02   -0.54325E+00  3840   0.607E+00    0.356E-01
DAV:   2    -0.928196941890E+02   -0.73284E-02   -0.72834E-02  4152   0.958E-01    0.490E-01
DAV:   3    -0.928216138211E+02   -0.19196E-02   -0.72113E-02  4752   0.756E-01    0.691E-01
DAV:   4    -0.928181983359E+02    0.34155E-02   -0.41040E-02  4824   0.576E-01    0.382E-01
DAV:   5    -0.928173964775E+02    0.80186E-03   -0.34175E-03  4608   0.210E-01    0.168E-01
DAV:   6    -0.928176813659E+02   -0.28489E-03   -0.22392E-03  4728   0.173E-01    0.201E-01
DAV:   7    -0.928173293452E+02    0.35202E-03   -0.20386E-03  3840   0.163E-01    0.565E-02
DAV:   8    -0.928173176545E+02    0.11691E-04   -0.20722E-04  2928   0.506E-02
   4 F= -.92817318E+02 E0= -.92806001E+02  d E =-.142910E-01
       N       E                     dE             d eps       ncg     rms          rms(c)
DAV:   1    -0.928008654619E+02    0.16464E-01   -0.48995E+01  3840   0.183E+01    0.102E+00
DAV:   2    -0.928838930831E+02   -0.83028E-01   -0.77577E-01  4584   0.303E+00    0.206E+00
DAV:   3    -0.928640791433E+02    0.19814E-01   -0.61240E-01  4656   0.214E+00    0.142E+00
DAV:   4    -0.928508058226E+02    0.13273E-01   -0.14979E-01  4560   0.114E+00    0.946E-01
DAV:   5    -0.928447257218E+02    0.60801E-02   -0.24837E-02  4872   0.585E-01    0.336E-01
DAV:   6    -0.928467239022E+02   -0.19982E-02   -0.18996E-02  4896   0.479E-01    0.498E-01
DAV:   7    -0.928446987222E+02    0.20252E-02   -0.13957E-02  4632   0.432E-01    0.205E-01
DAV:   8    -0.928443457578E+02    0.35296E-03   -0.26488E-03  4632   0.180E-01    0.695E-02
DAV:   9    -0.928443092420E+02    0.36516E-04   -0.22737E-04  2496   0.497E-02
   5 F= -.92844309E+02 E0= -.92833487E+02  d E =-.412825E-01
       N       E                     dE             d eps       ncg     rms          rms(c)
DAV:   1    -0.926622829440E+02    0.18206E+00   -0.19750E+02  3840   0.368E+01    0.188E+00
DAV:   2    -0.929244084997E+02   -0.26213E+00   -0.25599E+00  4344   0.565E+00    0.295E+00
DAV:   3    -0.929270961708E+02   -0.26877E-02   -0.19177E+00  4800   0.362E+00    0.314E+00
DAV:   4    -0.928560308059E+02    0.71065E-01   -0.67351E-01  4704   0.228E+00    0.168E+00
DAV:   5    -0.928356453862E+02    0.20385E-01   -0.85911E-02  4656   0.108E+00    0.624E-01
DAV:   6    -0.928422017933E+02   -0.65564E-02   -0.80135E-02  4872   0.975E-01    0.971E-01
DAV:   7    -0.928350918246E+02    0.71100E-02   -0.58943E-02  4560   0.896E-01    0.416E-01
DAV:   8    -0.928334639393E+02    0.16279E-02   -0.12020E-02  5304   0.379E-01    0.155E-01
DAV:   9    -0.928333112882E+02    0.15265E-03   -0.91244E-04  4632   0.926E-02    0.117E-01
DAV:  10    -0.928331840441E+02    0.12724E-03   -0.63406E-04  3120   0.718E-02    0.209E-02
DAV:  11    -0.928331890606E+02   -0.50165E-05   -0.67843E-05  1944   0.254E-02
   6 F= -.92833189E+02 E0= -.92823730E+02  d E =-.301624E-01
       N       E                     dE             d eps       ncg     rms          rms(c)
DAV:   1    -0.927764371936E+02    0.56747E-01   -0.78849E+01  3840   0.231E+01    0.132E+00
DAV:   2    -0.930063820799E+02   -0.22994E+00   -0.20716E+00  4608   0.458E+00    0.430E+00
DAV:   3    -0.928696320281E+02    0.13675E+00   -0.15557E+00  4656   0.343E+00    0.126E+00
DAV:   4    -0.928597629167E+02    0.98691E-02   -0.17862E-01  4632   0.130E+00    0.119E+00
DAV:   5    -0.928516411411E+02    0.81218E-02   -0.39135E-02  5064   0.752E-01    0.593E-01
DAV:   6    -0.928529947103E+02   -0.13536E-02   -0.19910E-02  4704   0.488E-01    0.586E-01
DAV:   7    -0.928499985232E+02    0.29962E-02   -0.14783E-02  4680   0.442E-01    0.202E-01
DAV:   8    -0.928498420280E+02    0.15650E-03   -0.16378E-03  5088   0.123E-01    0.807E-02
DAV:   9    -0.928497939523E+02    0.48076E-04   -0.20818E-04  2544   0.472E-02
   7 F= -.92849794E+02 E0= -.92839460E+02  d E =-.467673E-01
       N       E                     dE             d eps       ncg     rms          rms(c)
DAV:   1    -0.928474021061E+02    0.24399E-02   -0.36452E+00  3840   0.483E+00    0.347E-01
DAV:   2    -0.929000362987E+02   -0.52634E-01   -0.43088E-01  4440   0.187E+00    0.251E+00
DAV:   3    -0.928545903430E+02    0.45446E-01   -0.17412E-01  4632   0.115E+00    0.743E-01
DAV:   4    -0.928520442152E+02    0.25461E-02   -0.15766E-02  4992   0.413E-01    0.530E-01
DAV:   5    -0.928505674739E+02    0.14767E-02   -0.95577E-03  4656   0.331E-01    0.222E-01
DAV:   6    -0.928507358630E+02   -0.16839E-03   -0.25009E-03  4488   0.177E-01    0.176E-01
DAV:   7    -0.928504900636E+02    0.24580E-03   -0.14452E-03  3744   0.141E-01    0.753E-02
DAV:   8    -0.928504450270E+02    0.45037E-04   -0.28772E-04  2472   0.578E-02
   8 F= -.92850445E+02 E0= -.92840206E+02  d E =-.651075E-03
       N       E                     dE             d eps       ncg     rms          rms(c)
DAV:   1    -0.928504064911E+02    0.83573E-04   -0.58305E-01  3840   0.193E+00    0.139E-01
DAV:   2    -0.928620629317E+02   -0.11656E-01   -0.99461E-02  4440   0.869E-01    0.118E+00
DAV:   3    -0.928513547312E+02    0.10708E-01   -0.48128E-02  4680   0.612E-01    0.281E-01
DAV:   4    -0.928511389570E+02    0.21577E-03   -0.27808E-03  4968   0.183E-01    0.218E-01
DAV:   5    -0.928508557620E+02    0.28319E-03   -0.14846E-03  4080   0.133E-01    0.761E-02
DAV:   6    -0.928509047659E+02   -0.49004E-04   -0.35362E-04  2592   0.632E-02
   9 F= -.92850905E+02 E0= -.92840616E+02  d E =-.111081E-02
