 vasp.5.3.3 18Dez12 (build Mar 14 2013 11:04:21) complex                        
  
 executed on           LinuxFrank date 2016.09.10  22:52:19
 running on   24 total cores
 distrk:  each k-point on   24 cores,    1 groups
 distr:  one band on NCORES_PER_BAND=   1 cores,   24 groups


--------------------------------------------------------------------------------------------------------


 INCAR:
 POTCAR:    PAW_PBE Pt 04Feb2005                  

 ----------------------------------------------------------------------------- 
|                                                                             |
|           W    W    AA    RRRRR   N    N  II  N    N   GGGG   !!!           |
|           W    W   A  A   R    R  NN   N  II  NN   N  G    G  !!!           |
|           W    W  A    A  R    R  N N  N  II  N N  N  G       !!!           |
|           W WW W  AAAAAA  RRRRR   N  N N  II  N  N N  G  GGG   !            |
|           WW  WW  A    A  R   R   N   NN  II  N   NN  G    G                |
|           W    W  A    A  R    R  N    N  II  N    N   GGGG   !!!           |
|                                                                             |
|      For optimal performance we recommend that you set                      |
|        NPAR = 4 - approx SQRT( number of cores)                             |
|      (number of cores/NPAR must be integer)                                 |
|      This setting will greatly improve the performance of VASP for DFT.     |
|      The default NPAR=number of cores might be grossly inefficient          |
|      on modern multi-core architectures or massively parallel machines.     |
|      Do your own testing.                                                   |
|      Unfortunately you need to use the default for hybrid, GW and RPA       |
|      calculations.                                                          |
|                                                                             |
 ----------------------------------------------------------------------------- 

 POTCAR:    PAW_PBE Pt 04Feb2005                  
   VRHFIN =Pt: s1d9                                                             
   LEXCH  = PE                                                                  
   EATOM  =   729.1176 eV,   53.5886 Ry                                         
                                                                                
   TITEL  = PAW_PBE Pt 04Feb2005                                                
   LULTRA =        F    use ultrasoft PP ?                                      
   IUNSCR =        1    unscreen: 0-lin 1-nonlin 2-no                           
   RPACOR =    2.330    partial core radius                                     
   POMASS =  195.080; ZVAL   =   10.000    mass and valenz                      
   RCORE  =    2.600    outmost cutoff radius                                   
   RWIGS  =    2.750; RWIGS  =    1.455    wigner-seitz radius (au A)           
   ENMAX  =  230.283; ENMIN  =  172.712 eV                                      
   ICORE  =        3    local potential                                         
   LCOR   =        T    correct aug charges                                     
   LPAW   =        T    paw PP                                                  
   EAUG   =  358.966                                                            
   DEXC   =    0.000                                                            
   RMAX   =    2.658    core radius for proj-oper                               
   RAUG   =    1.300    factor for augmentation sphere                          
   RDEP   =    2.761    radius for radial grids                                 
   RDEPT  =    2.203    core radius for aug-charge                              
                                                                                
   Atomic configuration                                                         
   16 entries                                                                   
     n  l   j            E        occ.                                          
     1  0  0.50    -78401.1885   2.0000                                         
     2  0  0.50    -13770.7750   2.0000                                         
     2  1  1.50    -11931.0468   6.0000                                         
     3  0  0.50     -3234.7234   2.0000                                         
     3  1  1.50     -2699.2216   6.0000                                         
     3  2  2.50     -2119.5714  10.0000                                         
     4  0  0.50      -695.1528   2.0000                                         
     4  1  1.50      -519.6034   6.0000                                         
     4  2  2.50      -306.6786  10.0000                                         
     4  3  3.50       -70.1041  14.0000                                         
     5  0  0.50      -101.7747   2.0000                                         
     5  1  1.50       -55.9873   6.0000                                         
     5  2  2.50        -6.1423   9.0000                                         
     6  0  0.50        -5.6573   1.0000                                         
     6  1  1.50        -6.8029   0.0000                                         
     5  3  2.50        -1.3606   0.0000                                         
   Description                                                                  
     l       E           TYP  RCUT    TYP  RCUT                                 
     2     -6.1423404     23  2.500                                             
     2     -7.5029230     23  2.500                                             
     0     -5.6573207     23  2.500                                             
     0      0.7416693     23  2.500                                             
     1     -2.7211652     23  2.600                                             
     1     20.4087390     23  2.600                                             
     3     -1.3605826     23  2.500                                             
  local pseudopotential read in
  partial core-charges read in
  partial kinetic energy density read in
  atomic valenz-charges read in
  non local Contribution for L=           2  read in
    real space projection operators read in
  non local Contribution for L=           2  read in
    real space projection operators read in
  non local Contribution for L=           0  read in
    real space projection operators read in
  non local Contribution for L=           0  read in
    real space projection operators read in
  non local Contribution for L=           1  read in
    real space projection operators read in
  non local Contribution for L=           1  read in
    real space projection operators read in
    PAW grid and wavefunctions read in
 
   number of l-projection  operators is LMAX  =           6
   number of lm-projection operators is LMMAX =          18
 
  PAW_PBE Pt 04Feb2005                  :
 energy of atom  1       EATOM= -729.1176
 kinetic energy error for atom=    0.0144 (will be added to EATOM!!)
 
 
 POSCAR: Pt                                      
  positions in cartesian coordinates
  No initial velocities read in
 exchange correlation table for  LEXCH =        8
   RHO(1)=    0.500       N(1)  =     2000
   RHO(2)=  100.500       N(2)  =     4000
 


--------------------------------------------------------------------------------------------------------


 ion  position               nearest neighbor table
   1  0.000  0.000  0.373-   3 2.77   3 2.77   4 2.77   4 2.77   2 2.77   2 2.77   5 2.77   6 2.77
                             7 2.77
   2  0.500  0.000  0.373-   4 2.77   3 2.77   4 2.77   3 2.77   1 2.77   1 2.77   6 2.77   5 2.77
                             8 2.77
   3  0.000  0.500  0.373-   1 2.77   1 2.77   2 2.77   2 2.77   4 2.77   4 2.77   7 2.77   5 2.77
                             8 2.77
   4  0.500  0.500  0.373-   2 2.77   1 2.77   2 2.77   1 2.77   3 2.77   3 2.77   8 2.77   7 2.77
                             6 2.77
   5  0.167  0.167  0.458-   9 2.77  12 2.77  10 2.77   7 2.77   7 2.77   8 2.77   8 2.77   6 2.77
                             6 2.77   1 2.77   3 2.77   2 2.77
   6  0.667  0.167  0.458-  10 2.77  11 2.77   9 2.77   8 2.77   7 2.77   8 2.77   7 2.77   5 2.77
                             5 2.77   2 2.77   4 2.77   1 2.77
   7  0.167  0.667  0.458-  10 2.77  11 2.77  12 2.77   5 2.77   5 2.77   6 2.77   6 2.77   8 2.77
                             8 2.77   3 2.77   4 2.77   1 2.77
   8  0.667  0.667  0.458-   9 2.77  12 2.77  11 2.77   6 2.77   5 2.77   6 2.77   5 2.77   7 2.77
                             7 2.77   4 2.77   2 2.77   3 2.77
   9  0.833  0.333  0.542-   5 2.77   8 2.77   6 2.77  11 2.77  11 2.77  12 2.77  12 2.77  10 2.77
                            10 2.77  15 2.77  13 2.77  16 2.77
  10  0.333  0.333  0.542-   6 2.77   7 2.77   5 2.77  12 2.77  11 2.77  12 2.77  11 2.77   9 2.77
                             9 2.77  16 2.77  15 2.77  14 2.77
  11  0.833  0.833  0.542-   6 2.77   7 2.77   8 2.77   9 2.77   9 2.77  10 2.77  10 2.77  12 2.77
                            12 2.77  13 2.77  14 2.77  15 2.77
  12  0.333  0.833  0.542-   5 2.77   8 2.77   7 2.77  10 2.77   9 2.77  10 2.77   9 2.77  11 2.77
                            11 2.77  14 2.77  13 2.77  16 2.77
  13  0.000  0.000  0.627-  15 2.77  15 2.77  16 2.77  16 2.77  14 2.77  14 2.77  11 2.77   9 2.77
                            12 2.77
  14  0.500  0.000  0.627-  16 2.77  15 2.77  16 2.77  15 2.77  13 2.77  13 2.77  12 2.77  11 2.77
                            10 2.77
  15  0.000  0.500  0.627-  13 2.77  13 2.77  14 2.77  14 2.77  16 2.77  16 2.77   9 2.77  10 2.77
                            11 2.77
  16  0.500  0.500  0.627-  14 2.77  13 2.77  14 2.77  13 2.77  15 2.77  15 2.77  10 2.77   9 2.77
                            12 2.77
 
  LATTYP: Found a hexagonal cell.
 ALAT       =     5.5437171645
 C/A-ratio  =     4.8324325305
  
  Lattice vectors:
  
 A1 = (   2.7718585823,  -4.8009998959,   0.0000000000)
 A2 = (  -5.5437171645,   0.0000000000,   0.0000000000)
 A3 = (   0.0000000000,   0.0000000000, -26.7896391657)


Analysis of symmetry for initial positions (statically):
=====================================================================
 Subroutine PRICEL returns following result:
 
  LATTYP: Found a hexagonal cell.
 ALAT       =     2.7718585823
 C/A-ratio  =     9.6648650610
  
  Lattice vectors:
  
 A1 = (   1.3859292911,  -2.4004999479,   0.0000000000)
 A2 = (  -2.7718585823,   0.0000000000,   0.0000000000)
 A3 = (   0.0000000000,   0.0000000000, -26.7896391657)
 
   4 primitive cells build up your supercell.
 

 Routine SETGRP: Setting up the symmetry group for a 
 hexagonal supercell.


 Subroutine GETGRP returns: Found 12 space group operations
 (whereof 12 operations were pure point group operations)
 out of a pool of 24 trial point group operations.


The static configuration has the point symmetry D_3d.


Analysis of symmetry for dynamics (positions and initial velocities):
=====================================================================
 Subroutine PRICEL returns following result:
 
  LATTYP: Found a hexagonal cell.
 ALAT       =     2.7718585823
 C/A-ratio  =     9.6648650610
  
  Lattice vectors:
  
 A1 = (   1.3859292911,  -2.4004999479,   0.0000000000)
 A2 = (  -2.7718585823,   0.0000000000,   0.0000000000)
 A3 = (   0.0000000000,   0.0000000000, -26.7896391657)
 
   4 primitive cells build up your supercell.
 

 Routine SETGRP: Setting up the symmetry group for a 
 hexagonal supercell.


 Subroutine GETGRP returns: Found 12 space group operations
 (whereof 12 operations were pure point group operations)
 out of a pool of 24 trial point group operations.


The dynamic configuration has the point symmetry D_3d.


Analysis of constrained symmetry for selective dynamics:
=====================================================================
 Subroutine PRICEL returns following result:
 
  LATTYP: Found a hexagonal cell.
 ALAT       =     2.7718585823
 C/A-ratio  =     9.6648650610
  
  Lattice vectors:
  
 A1 = (   1.3859292911,  -2.4004999479,   0.0000000000)
 A2 = (  -2.7718585823,   0.0000000000,   0.0000000000)
 A3 = (   0.0000000000,   0.0000000000, -26.7896391657)
 
   4 primitive cells build up your supercell.
 

 Routine SETGRP: Setting up the symmetry group for a 
 hexagonal supercell.


 Subroutine GETGRP returns: Found  6 space group operations
 (whereof  6 operations were pure point group operations)
 out of a pool of 24 trial point group operations.


The constrained configuration has the point symmetry C_3v.


 irot  :   1
 --------------------------------------------------------------------
 isymop:   1   0   0
           0   1   0
           0   0   1

 gtrans:     0.0000000     0.0000000     0.0000000

 ptrans:     0.0000000     0.0000000     0.0000000
 rotmap:
 (   1->   1)  (   2->   2)  (   3->   3)  (   4->   4)  (   5->   5) 
 (   6->   6)  (   7->   7)  (   8->   8)  (   9->   9)  (  10->  10) 
 (  11->  11)  (  12->  12)  (  13->  13)  (  14->  14)  (  15->  15) 
 (  16->  16) 

 ptrans:     0.5000000     0.5000000     0.0000000
 rotmap:
 (   1->   4)  (   2->   3)  (   3->   2)  (   4->   1)  (   5->   8) 
 (   6->   7)  (   7->   6)  (   8->   5)  (   9->  12)  (  10->  11) 
 (  11->  10)  (  12->   9)  (  13->  16)  (  14->  15)  (  15->  14) 
 (  16->  13) 

 ptrans:     0.5000000     0.0000000     0.0000000
 rotmap:
 (   1->   2)  (   2->   1)  (   3->   4)  (   4->   3)  (   5->   6) 
 (   6->   5)  (   7->   8)  (   8->   7)  (   9->  10)  (  10->   9) 
 (  11->  12)  (  12->  11)  (  13->  14)  (  14->  13)  (  15->  16) 
 (  16->  15) 

 ptrans:     0.0000000     0.5000000     0.0000000
 rotmap:
 (   1->   3)  (   2->   4)  (   3->   1)  (   4->   2)  (   5->   7) 
 (   6->   8)  (   7->   5)  (   8->   6)  (   9->  11)  (  10->  12) 
 (  11->   9)  (  12->  10)  (  13->  15)  (  14->  16)  (  15->  13) 
 (  16->  14) 


 irot  :   2
 --------------------------------------------------------------------
 isymop:   0   1   0
          -1  -1   0
           0   0   1

 gtrans:     0.0000000     0.0000000     0.0000000

 ptrans:     0.0000000     0.0000000     0.0000000
 rotmap:
 (   1->   1)  (   2->   3)  (   3->   4)  (   4->   2)  (   5->   7) 
 (   6->   5)  (   7->   6)  (   8->   8)  (   9->  12)  (  10->  10) 
 (  11->   9)  (  12->  11)  (  13->  13)  (  14->  15)  (  15->  16) 
 (  16->  14) 

 ptrans:     0.5000000     0.5000000     0.0000000
 rotmap:
 (   1->   4)  (   2->   2)  (   3->   1)  (   4->   3)  (   5->   6) 
 (   6->   8)  (   7->   7)  (   8->   5)  (   9->   9)  (  10->  11) 
 (  11->  12)  (  12->  10)  (  13->  16)  (  14->  14)  (  15->  13) 
 (  16->  15) 

 ptrans:     0.5000000     0.0000000     0.0000000
 rotmap:
 (   1->   2)  (   2->   4)  (   3->   3)  (   4->   1)  (   5->   8) 
 (   6->   6)  (   7->   5)  (   8->   7)  (   9->  11)  (  10->   9) 
 (  11->  10)  (  12->  12)  (  13->  14)  (  14->  16)  (  15->  15) 
 (  16->  13) 

 ptrans:     0.0000000     0.5000000     0.0000000
 rotmap:
 (   1->   3)  (   2->   1)  (   3->   2)  (   4->   4)  (   5->   5) 
 (   6->   7)  (   7->   8)  (   8->   6)  (   9->  10)  (  10->  12) 
 (  11->  11)  (  12->   9)  (  13->  15)  (  14->  13)  (  15->  14) 
 (  16->  16) 


 irot  :   3
 --------------------------------------------------------------------
 isymop:  -1  -1   0
           1   0   0
           0   0   1

 gtrans:     0.0000000     0.0000000     0.0000000

 ptrans:     0.0000000     0.0000000     0.0000000
 rotmap:
 (   1->   1)  (   2->   4)  (   3->   2)  (   4->   3)  (   5->   6) 
 (   6->   7)  (   7->   5)  (   8->   8)  (   9->  11)  (  10->  10) 
 (  11->  12)  (  12->   9)  (  13->  13)  (  14->  16)  (  15->  14) 
 (  16->  15) 

 ptrans:     0.5000000     0.5000000     0.0000000
 rotmap:
 (   1->   4)  (   2->   1)  (   3->   3)  (   4->   2)  (   5->   7) 
 (   6->   6)  (   7->   8)  (   8->   5)  (   9->  10)  (  10->  11) 
 (  11->   9)  (  12->  12)  (  13->  16)  (  14->  13)  (  15->  15) 
 (  16->  14) 

 ptrans:     0.5000000     0.0000000     0.0000000
 rotmap:
 (   1->   2)  (   2->   3)  (   3->   1)  (   4->   4)  (   5->   5) 
 (   6->   8)  (   7->   6)  (   8->   7)  (   9->  12)  (  10->   9) 
 (  11->  11)  (  12->  10)  (  13->  14)  (  14->  15)  (  15->  13) 
 (  16->  16) 

 ptrans:     0.0000000     0.5000000     0.0000000
 rotmap:
 (   1->   3)  (   2->   2)  (   3->   4)  (   4->   1)  (   5->   8) 
 (   6->   5)  (   7->   7)  (   8->   6)  (   9->   9)  (  10->  12) 
 (  11->  10)  (  12->  11)  (  13->  15)  (  14->  14)  (  15->  16) 
 (  16->  13) 


 irot  :   4
 --------------------------------------------------------------------
 isymop:   0   1   0
           1   0   0
           0   0   1

 gtrans:     0.0000000     0.0000000     0.0000000

 ptrans:     0.0000000     0.0000000     0.0000000
 rotmap:
 (   1->   1)  (   2->   3)  (   3->   2)  (   4->   4)  (   5->   5) 
 (   6->   7)  (   7->   6)  (   8->   8)  (   9->  12)  (  10->  10) 
 (  11->  11)  (  12->   9)  (  13->  13)  (  14->  15)  (  15->  14) 
 (  16->  16) 

 ptrans:     0.5000000     0.5000000     0.0000000
 rotmap:
 (   1->   4)  (   2->   2)  (   3->   3)  (   4->   1)  (   5->   8) 
 (   6->   6)  (   7->   7)  (   8->   5)  (   9->   9)  (  10->  11) 
 (  11->  10)  (  12->  12)  (  13->  16)  (  14->  14)  (  15->  15) 
 (  16->  13) 

 ptrans:     0.5000000     0.0000000     0.0000000
 rotmap:
 (   1->   2)  (   2->   4)  (   3->   1)  (   4->   3)  (   5->   6) 
 (   6->   8)  (   7->   5)  (   8->   7)  (   9->  11)  (  10->   9) 
 (  11->  12)  (  12->  10)  (  13->  14)  (  14->  16)  (  15->  13) 
 (  16->  15) 

 ptrans:     0.0000000     0.5000000     0.0000000
 rotmap:
 (   1->   3)  (   2->   1)  (   3->   4)  (   4->   2)  (   5->   7) 
 (   6->   5)  (   7->   8)  (   8->   6)  (   9->  10)  (  10->  12) 
 (  11->   9)  (  12->  11)  (  13->  15)  (  14->  13)  (  15->  16) 
 (  16->  14) 


 irot  :   5
 --------------------------------------------------------------------
 isymop:  -1  -1   0
           0   1   0
           0   0   1

 gtrans:     0.0000000     0.0000000     0.0000000

 ptrans:     0.0000000     0.0000000     0.0000000
 rotmap:
 (   1->   1)  (   2->   2)  (   3->   4)  (   4->   3)  (   5->   6) 
 (   6->   5)  (   7->   7)  (   8->   8)  (   9->   9)  (  10->  10) 
 (  11->  12)  (  12->  11)  (  13->  13)  (  14->  14)  (  15->  16) 
 (  16->  15) 

 ptrans:     0.5000000     0.5000000     0.0000000
 rotmap:
 (   1->   4)  (   2->   3)  (   3->   1)  (   4->   2)  (   5->   7) 
 (   6->   8)  (   7->   6)  (   8->   5)  (   9->  12)  (  10->  11) 
 (  11->   9)  (  12->  10)  (  13->  16)  (  14->  15)  (  15->  13) 
 (  16->  14) 

 ptrans:     0.5000000     0.0000000     0.0000000
 rotmap:
 (   1->   2)  (   2->   1)  (   3->   3)  (   4->   4)  (   5->   5) 
 (   6->   6)  (   7->   8)  (   8->   7)  (   9->  10)  (  10->   9) 
 (  11->  11)  (  12->  12)  (  13->  14)  (  14->  13)  (  15->  15) 
 (  16->  16) 

 ptrans:     0.0000000     0.5000000     0.0000000
 rotmap:
 (   1->   3)  (   2->   4)  (   3->   2)  (   4->   1)  (   5->   8) 
 (   6->   7)  (   7->   5)  (   8->   6)  (   9->  11)  (  10->  12) 
 (  11->  10)  (  12->   9)  (  13->  15)  (  14->  16)  (  15->  14) 
 (  16->  13) 


 irot  :   6
 --------------------------------------------------------------------
 isymop:   1   0   0
          -1  -1   0
           0   0   1

 gtrans:     0.0000000     0.0000000     0.0000000

 ptrans:     0.0000000     0.0000000     0.0000000
 rotmap:
 (   1->   1)  (   2->   4)  (   3->   3)  (   4->   2)  (   5->   7) 
 (   6->   6)  (   7->   5)  (   8->   8)  (   9->  11)  (  10->  10) 
 (  11->   9)  (  12->  12)  (  13->  13)  (  14->  16)  (  15->  15) 
 (  16->  14) 

 ptrans:     0.5000000     0.5000000     0.0000000
 rotmap:
 (   1->   4)  (   2->   1)  (   3->   2)  (   4->   3)  (   5->   6) 
 (   6->   7)  (   7->   8)  (   8->   5)  (   9->  10)  (  10->  11) 
 (  11->  12)  (  12->   9)  (  13->  16)  (  14->  13)  (  15->  14) 
 (  16->  15) 

 ptrans:     0.5000000     0.0000000     0.0000000
 rotmap:
 (   1->   2)  (   2->   3)  (   3->   4)  (   4->   1)  (   5->   8) 
 (   6->   5)  (   7->   6)  (   8->   7)  (   9->  12)  (  10->   9) 
 (  11->  10)  (  12->  11)  (  13->  14)  (  14->  15)  (  15->  16) 
 (  16->  13) 

 ptrans:     0.0000000     0.5000000     0.0000000
 rotmap:
 (   1->   3)  (   2->   2)  (   3->   1)  (   4->   4)  (   5->   5) 
 (   6->   8)  (   7->   7)  (   8->   6)  (   9->   9)  (  10->  12) 
 (  11->  11)  (  12->  10)  (  13->  15)  (  14->  14)  (  15->  13) 
 (  16->  16) 
 
 
 KPOINTS: KPOINTS created by Atomic Simulation Env

Automatic generation of k-mesh.
Space group operators:
 irot       det(A)        alpha          n_x          n_y          n_z        tau_x        tau_y        tau_z
    1     1.000000     0.000001     1.000000     0.000000     0.000000     0.000000     0.000000     0.000000
    2     1.000000   120.000000     0.000000     0.000000     1.000000     0.000000     0.000000     0.000000
    3     1.000000   120.000000     0.000000     0.000000    -1.000000     0.000000     0.000000     0.000000
    4    -1.000000   180.000000     0.500000    -0.866025     0.000000     0.000000     0.000000     0.000000
    5    -1.000000   180.000000     1.000000     0.000000     0.000000     0.000000     0.000000     0.000000
    6    -1.000000   180.000000    -0.500000    -0.866025     0.000000     0.000000     0.000000     0.000000
 
 Subroutine IBZKPT returns following result:
 ===========================================
 
 Found     20 irreducible k-points:
 
 Following reciprocal coordinates:
            Coordinates               Weight
  0.062500  0.062500  0.000000     48.000000
  0.187500  0.062500  0.000000     96.000000
  0.312500  0.062500  0.000000     96.000000
  0.437500  0.062500  0.000000     96.000000
 -0.437500  0.062500  0.000000     96.000000
 -0.312500  0.062500  0.000000     96.000000
 -0.187500  0.062500  0.000000     96.000000
 -0.062500  0.062500  0.000000     48.000000
  0.187500  0.187500  0.000000     48.000000
  0.312500  0.187500  0.000000     96.000000
  0.437500  0.187500  0.000000     96.000000
 -0.437500  0.187500  0.000000     96.000000
 -0.312500  0.187500  0.000000     96.000000
 -0.187500  0.187500  0.000000     48.000000
  0.312500  0.312500  0.000000     48.000000
  0.437500  0.312500  0.000000     96.000000
 -0.437500  0.312500  0.000000     96.000000
 -0.312500  0.312500  0.000000     48.000000
  0.437500  0.437500  0.000000     48.000000
 -0.437500  0.437500  0.000000     48.000000
 
 Following cartesian coordinates:
            Coordinates               Weight
  0.011274  0.006509  0.000000     48.000000
  0.033822 -0.006509  0.000000     96.000000
  0.056370 -0.019527  0.000000     96.000000
  0.078918 -0.032545  0.000000     96.000000
 -0.078918  0.058582  0.000000     96.000000
 -0.056370  0.045563  0.000000     96.000000
 -0.033822  0.032545  0.000000     96.000000
 -0.011274  0.019527  0.000000     48.000000
  0.033822  0.019527  0.000000     48.000000
  0.056370  0.006509  0.000000     96.000000
  0.078918 -0.006509  0.000000     96.000000
 -0.078918  0.084618  0.000000     96.000000
 -0.056370  0.071600  0.000000     96.000000
 -0.033822  0.058582  0.000000     48.000000
  0.056370  0.032545  0.000000     48.000000
  0.078918  0.019527  0.000000     96.000000
 -0.078918  0.110654  0.000000     96.000000
 -0.056370  0.097636  0.000000     48.000000
  0.078918  0.045563  0.000000     48.000000
 -0.078918  0.136690  0.000000     48.000000
 


--------------------------------------------------------------------------------------------------------




 Dimension of arrays:
   k-points           NKPTS =     20   k-points in BZ     NKDIM =     20   number of bands    NBANDS=     96
   number of dos      NEDOS =    301   number of ions     NIONS =     16
   non local maximal  LDIM  =      6   non local SUM 2l+1 LMDIM =     18
   total plane-waves  NPLWV =  98784
   max r-space proj   IRMAX =      1   max aug-charges    IRDMAX=   8590
   dimension x,y,z NGX =    28 NGY =   28 NGZ =  126
   dimension x,y,z NGXF=    56 NGYF=   56 NGZF=  252
   support grid    NGXF=    56 NGYF=   56 NGZF=  252
   ions per type =              16
 NGX,Y,Z   is equivalent  to a cutoff of   8.40,  8.40,  7.82 a.u.
 NGXF,Y,Z  is equivalent  to a cutoff of  16.79, 16.79, 15.64 a.u.


 I would recommend the setting:
   dimension x,y,z NGX =    25 NGY =   25 NGZ =  123
 SYSTEM =  unknown system                          
 POSCAR =  Pt                                      

 Startparameter for this run:
   NWRITE =      2    write-flag & timer
   PREC   = normal    normal or accurate (medium, high low for compatibility)
   ISTART =      0    job   : 0-new  1-cont  2-samecut
   ICHARG =      2    charge: 1-file 2-atom 10-const
   ISPIN  =      1    spin polarized calculation?
   LNONCOLLINEAR =      F non collinear calculations
   LSORBIT =      F    spin-orbit coupling
   INIWAV =      1    electr: 0-lowe 1-rand  2-diag
   LASPH  =      F    aspherical Exc in radial PAW
   METAGGA=      F    non-selfconsistent MetaGGA calc.

 Electronic Relaxation 1
   ENCUT  =  350.0 eV  25.72 Ry    5.07 a.u.   8.46  8.46 40.87*2*pi/ulx,y,z
   ENINI  =  350.0     initial cutoff
   ENAUG  =  359.0 eV  augmentation charge cutoff
   NELM   =     60;   NELMIN=  2; NELMDL= -5     # of ELM steps 
   EDIFF  = 0.1E-03   stopping-criterion for ELM
   LREAL  =      F    real-space projection
   NLSPLINE    = F    spline interpolate recip. space projectors
   LCOMPAT=      F    compatible to vasp.4.4
   GGA_COMPAT  = T    GGA compatible to vasp.4.4-vasp.4.6
   LMAXPAW     = -100 max onsite density
   LMAXMIX     =    2 max onsite mixed and CHGCAR
   VOSKOWN=      0    Vosko Wilk Nusair interpolation
   ROPT   =    0.00000
 Ionic relaxation
   EDIFFG = 0.1E-02   stopping-criterion for IOM
   NSW    =    200    number of steps for IOM
   NBLOCK =      1;   KBLOCK =    200    inner block; outer block 
   IBRION =      2    ionic relax: 0-MD 1-quasi-New 2-CG
   NFREE  =      1    steps in history (QN), initial steepest desc. (CG)
   ISIF   =      2    stress and relaxation
   IWAVPR =     11    prediction:  0-non 1-charg 2-wave 3-comb
   ISYM   =      2    0-nonsym 1-usesym 2-fastsym
   LCORR  =      T    Harris-Foulkes like correction to forces

   POTIM  = 0.5000    time-step for ionic-motion
   TEIN   =    0.0    initial temperature
   TEBEG  =    0.0;   TEEND  =   0.0 temperature during run
   SMASS  =  -3.00    Nose mass-parameter (am)
   estimated Nose-frequenzy (Omega)   =  0.10E-29 period in steps =****** mass=  -0.702E-27a.u.
   SCALEE = 1.0000    scale energy and forces
   NPACO  =    256;   APACO  = 16.0  distance and # of slots for P.C.
   PSTRESS=    0.0 pullay stress

  Mass of Ions in am
   POMASS = 195.08
  Ionic Valenz
   ZVAL   =  10.00
  Atomic Wigner-Seitz radii
   RWIGS  =  -1.00
  virtual crystal weights 
   VCA    =   1.00
   NELECT =     160.0000    total number of electrons
   NUPDOWN=      -1.0000    fix difference up-down

 DOS related values:
   EMIN   =  10.00;   EMAX   =-10.00  energy-range for DOS
   EFERMI =   0.00
   ISMEAR =     1;   SIGMA  =   0.20  broadening in eV -4-tet -1-fermi 0-gaus

 Electronic relaxation 2 (details)
   IALGO  =     38    algorithm
   LDIAG  =      T    sub-space diagonalisation (order eigenvalues)
   LSUBROT=      T    optimize rotation matrix (better conditioning)
   TURBO    =      0    0=normal 1=particle mesh
   IRESTART =      0    0=no restart 2=restart with 2 vectors
   NREBOOT  =      0    no. of reboots
   NMIN     =      0    reboot dimension
   EREF     =   0.00    reference energy to select bands
   IMIX   =      4    mixing-type and parameters
     AMIX     =   0.40;   BMIX     =  1.00
     AMIX_MAG =   1.60;   BMIX_MAG =  1.00
     AMIN     =   0.10
     WC   =   100.;   INIMIX=   1;  MIXPRE=   1;  MAXMIX= -45

 Intra band minimization:
   WEIMIN = 0.0010     energy-eigenvalue tresh-hold
   EBREAK =  0.26E-06  absolut break condition
   DEPER  =   0.30     relativ break condition  

   TIME   =   0.40     timestep for ELM

  volume/ion in A,a.u.               =      44.56       300.73
  Fermi-wavevector in a.u.,A,eV,Ry     =   0.994829  1.879954 13.465469  0.989684
  Thomas-Fermi vector in A             =   2.126807
 
 Write flags
   LWAVE  =      T    write WAVECAR
   LCHARG =      T    write CHGCAR
   LVTOT  =      F    write LOCPOT, total local potential
   LVHAR  =      F    write LOCPOT, Hartree potential only
   LELF   =      F    write electronic localiz. function (ELF)
   LORBIT =      0    0 simple, 1 ext, 2 COOP (PROOUT)


 Dipole corrections
   LMONO  =      F    monopole corrections only (constant potential shift)
   LDIPOL =      F    correct potential (dipole corrections)
   IDIPOL =      0    1-x, 2-y, 3-z, 4-all directions 
   EPSILON=  1.0000000 bulk dielectric constant

 Exchange correlation treatment:
   GGA     =    --    GGA type
   LEXCH   =     8    internal setting for exchange type
   VOSKOWN=      0    Vosko Wilk Nusair interpolation
   LHFCALC =     F    Hartree Fock is set to
   LHFONE  =     F    Hartree Fock one center treatment
   AEXX    =    0.0000 exact exchange contribution

 Linear response parameters
   LEPSILON=     F    determine dielectric tensor
   LRPA    =     F    only Hartree local field effects (RPA)
   LNABLA  =     F    use nabla operator in PAW spheres
   LVEL    =     F    velocity operator in full k-point grid
   LINTERFAST=   F  fast interpolation
   KINTER  =     0    interpolate to denser k-point grid
   CSHIFT  =0.1000    complex shift for real part using Kramers Kronig
   OMEGAMAX=  -1.0    maximum frequency
   DEG_THRESHOLD= 0.2000000E-02 threshold for treating states as degnerate
   RTIME   =    0.100 relaxation time in fs

 Orbital magnetization related:
   ORBITALMAG=     F  switch on orbital magnetization
   LCHIMAG   =     F  perturbation theory with respect to B field
   DQ        =  0.001000  dq finite difference perturbation B field



--------------------------------------------------------------------------------------------------------


 conjugate gradient relaxation of ions
   using selective dynamics as specified on POSCAR
   WARNING: If single coordinates had been selected the selection of coordinates
            is made according to the corresponding   d i r e c t   coordinates!
            Don't support selection of single cartesian coordinates -- sorry ...
  !
 charge density and potential will be updated during run
 non-spin polarized calculation
 Variant of blocked Davidson
 Davidson routine will perform the subspace rotation
 perform sub-space diagonalisation
    after iterative eigenvector-optimisation
 modified Broyden-mixing scheme, WC =      100.0
 initial mixing is a Kerker type mixing with AMIX =  0.4000 and BMIX =      1.0000
 Hartree-type preconditioning will be used
 using additional bands           16
 reciprocal scheme for non local part
 use partial core corrections
 calculate Harris-corrections to forces 
   (improved forces if not selfconsistent)
 use gradient corrections 
 use of overlap-Matrix (Vanderbilt PP)
 Methfessel and Paxton  Order N= 1 SIGMA  =   0.20


--------------------------------------------------------------------------------------------------------


  energy-cutoff  :      350.00
  volume of cell :      713.02
      direct lattice vectors                 reciprocal lattice vectors
     5.543717165  0.000000000  0.000000000     0.180384383 -0.104144972  0.000000000
     2.771858582  4.800999896  0.000000000     0.000000000  0.208289944  0.000000000
     0.000000000  0.000000000 26.789639166     0.000000000  0.000000000  0.037327864

  length of vectors
     5.543717165  5.543717165 26.789639166     0.208289944  0.208289944  0.037327864


 
 k-points in units of 2pi/SCALE and weight: KPOINTS created by Atomic Simulation Env
   0.01127402  0.00650906  0.00000000       0.031
   0.03382207 -0.00650906  0.00000000       0.062
   0.05637012 -0.01952718  0.00000000       0.062
   0.07891817 -0.03254530  0.00000000       0.062
  -0.07891817  0.05858155  0.00000000       0.062
  -0.05637012  0.04556343  0.00000000       0.062
  -0.03382207  0.03254530  0.00000000       0.062
  -0.01127402  0.01952718  0.00000000       0.031
   0.03382207  0.01952718  0.00000000       0.031
   0.05637012  0.00650906  0.00000000       0.062
   0.07891817 -0.00650906  0.00000000       0.062
  -0.07891817  0.08461779  0.00000000       0.062
  -0.05637012  0.07159967  0.00000000       0.062
  -0.03382207  0.05858155  0.00000000       0.031
   0.05637012  0.03254530  0.00000000       0.031
   0.07891817  0.01952718  0.00000000       0.062
  -0.07891817  0.11065403  0.00000000       0.062
  -0.05637012  0.09763591  0.00000000       0.031
   0.07891817  0.04556343  0.00000000       0.031
  -0.07891817  0.13669028  0.00000000       0.031
 
 k-points in reciprocal lattice and weights: KPOINTS created by Atomic Simulation Env
   0.06250000  0.06250000  0.00000000       0.031
   0.18750000  0.06250000  0.00000000       0.062
   0.31250000  0.06250000  0.00000000       0.062
   0.43750000  0.06250000  0.00000000       0.062
  -0.43750000  0.06250000  0.00000000       0.062
  -0.31250000  0.06250000  0.00000000       0.062
  -0.18750000  0.06250000  0.00000000       0.062
  -0.06250000  0.06250000  0.00000000       0.031
   0.18750000  0.18750000  0.00000000       0.031
   0.31250000  0.18750000  0.00000000       0.062
   0.43750000  0.18750000  0.00000000       0.062
  -0.43750000  0.18750000  0.00000000       0.062
  -0.31250000  0.18750000  0.00000000       0.062
  -0.18750000  0.18750000  0.00000000       0.031
   0.31250000  0.31250000  0.00000000       0.031
   0.43750000  0.31250000  0.00000000       0.062
  -0.43750000  0.31250000  0.00000000       0.062
  -0.31250000  0.31250000  0.00000000       0.031
   0.43750000  0.43750000  0.00000000       0.031
  -0.43750000  0.43750000  0.00000000       0.031
 
 position of ions in fractional coordinates (direct lattice) 
   0.00000000  0.00000000  0.37327864
   0.50000000  0.00000000  0.37327864
   0.00000000  0.50000000  0.37327864
   0.50000000  0.50000000  0.37327864
   0.16666667  0.16666667  0.45775955
   0.66666667  0.16666667  0.45775955
   0.16666667  0.66666667  0.45775955
   0.66666667  0.66666667  0.45775955
   0.83333333  0.33333333  0.54224045
   0.33333333  0.33333333  0.54224045
   0.83333333  0.83333333  0.54224045
   0.33333333  0.83333333  0.54224045
   0.00000000  0.00000000  0.62672136
   0.50000000  0.00000000  0.62672136
   0.00000000  0.50000000  0.62672136
   0.50000000  0.50000000  0.62672136
 
 position of ions in cartesian coordinates  (Angst):
   0.00000000  0.00000000 10.00000000
   2.77185858  0.00000000 10.00000000
   1.38592929  2.40049995 10.00000000
   4.15778787  2.40049995 10.00000000
   1.38592929  0.80016665 12.26321306
   4.15778787  0.80016665 12.26321306
   2.77185858  3.20066660 12.26321306
   5.54371716  3.20066660 12.26321306
   5.54371716  1.60033330 14.52642611
   2.77185858  1.60033330 14.52642611
   6.92964646  4.00083325 14.52642611
   4.15778787  4.00083325 14.52642611
   0.00000000  0.00000000 16.78963917
   2.77185858  0.00000000 16.78963917
   1.38592929  2.40049995 16.78963917
   4.15778787  2.40049995 16.78963917
 


--------------------------------------------------------------------------------------------------------


 k-point  1 :   0.0625 0.0625 0.0000  plane waves:   10681
 k-point  2 :   0.1875 0.0625 0.0000  plane waves:   10654
 k-point  3 :   0.3125 0.0625 0.0000  plane waves:   10616
 k-point  4 :   0.4375 0.0625 0.0000  plane waves:   10577
 k-point  5 :  -0.4375 0.0625 0.0000  plane waves:   10551
 k-point  6 :  -0.3125 0.0625 0.0000  plane waves:   10587
 k-point  7 :  -0.1875 0.0625 0.0000  plane waves:   10616
 k-point  8 :  -0.0625 0.0625 0.0000  plane waves:   10677
 k-point  9 :   0.1875 0.1875 0.0000  plane waves:   10631
 k-point 10 :   0.3125 0.1875 0.0000  plane waves:   10620
 k-point 11 :   0.4375 0.1875 0.0000  plane waves:   10599
 k-point 12 :  -0.4375 0.1875 0.0000  plane waves:   10577
 k-point 13 :  -0.3125 0.1875 0.0000  plane waves:   10577
 k-point 14 :  -0.1875 0.1875 0.0000  plane waves:   10613
 k-point 15 :   0.3125 0.3125 0.0000  plane waves:   10603
 k-point 16 :   0.4375 0.3125 0.0000  plane waves:   10605
 k-point 17 :  -0.4375 0.3125 0.0000  plane waves:   10593
 k-point 18 :  -0.3125 0.3125 0.0000  plane waves:   10592
 k-point 19 :   0.4375 0.4375 0.0000  plane waves:   10562
 k-point 20 :  -0.4375 0.4375 0.0000  plane waves:   10550

 maximum and minimum number of plane-waves per node :     10681    10550

 maximum number of plane-waves:     10681
 maximum index in each direction: 
   IXMAX=    8   IYMAX=    8   IZMAX=   40
   IXMIN=   -8   IYMIN=   -8   IZMIN=  -40

 WARNING: aliasing errors must be expected set NGX to  34 to avoid them
 WARNING: aliasing errors must be expected set NGY to  34 to avoid them
 WARNING: aliasing errors must be expected set NGZ to 162 to avoid them
 aliasing errors are usually negligible using standard VASP settings
 and one can safely disregard these warnings

 serial   3D FFT for wavefunctions
 parallel 3D FFT for charge:
    minimum data exchange during FFTs selected (reduces bandwidth)


 total amount of memory used by VASP on root node    87925. kBytes
========================================================================

   base      :      30000. kBytes
   nonl-proj :      33567. kBytes
   fftplans  :       3494. kBytes
   grid      :       6547. kBytes
   one-center:        248. kBytes
   wavefun   :      14069. kBytes
 
 Broyden mixing: mesh for mixing (old mesh)
   NGX = 17   NGY = 17   NGZ = 81
  (NGX  = 56   NGY  = 56   NGZ  =252)
  gives a total of  23409 points

 initial charge density was supplied:
 charge density of overlapping atoms calculated
 number of electron     160.0000000 magnetization 
 keeping initial charge density in first step


--------------------------------------------------------------------------------------------------------


 Maximum index for augmentation-charges          730 (set IRDMAX)


--------------------------------------------------------------------------------------------------------


 First call to EWALD:  gamma=   0.198
 Maximum number of real-space cells 5x 5x 1
 Maximum number of reciprocal cells 2x 2x 7

 FEWALD executed in parallel
    FEWALD:  cpu time    0.16: real time    0.16


----------------------------------------- Iteration    1(   1)  ---------------------------------------


    POTLOK:  cpu time    0.56: real time    0.59
    SETDIJ:  cpu time    0.00: real time    0.01
     EDDAV:  cpu time  214.19: real time  214.92
       DOS:  cpu time    0.48: real time    0.48
    --------------------------------------------
      LOOP:  cpu time  215.23: real time  216.01

 eigenvalue-minimisations  :  3840
 total energy-change (2. order) : 0.9269756E+03  (-0.5760262E+04)
 number of electron     160.0000000 magnetization 
 augmentation part      160.0000000 magnetization 

 Free energy of the ion-electron system (eV)
  ---------------------------------------------------
  alpha Z        PSCENC =       341.29524080
  Ewald energy   TEWEN  =     74421.33385243
  -1/2 Hartree   DENC   =    -86623.64720304
  -exchange  EXHF       =         0.00000000
  -V(xc)+E(xc)   XCENC  =        55.83160137
  PAW double counting   =     11137.97656685   -10685.44471970
  entropy T*S    EENTRO =        -0.00291360
  eigenvalues    EBANDS =       613.98180394
  atomic energy  EATOM  =     11665.65139175
  ---------------------------------------------------
  free energy    TOTEN  =       926.97562081 eV

  energy without entropy =      926.97853441  energy(sigma->0) =      926.97659201


--------------------------------------------------------------------------------------------------------




----------------------------------------- Iteration    1(   2)  ---------------------------------------


     EDDAV:  cpu time   44.40: real time   47.65
       DOS:  cpu time    0.00: real time    0.00
    --------------------------------------------
      LOOP:  cpu time   44.41: real time   47.68

 eigenvalue-minimisations  :  5592
 total energy-change (2. order) :-0.9778031E+03  (-0.9502313E+03)
 number of electron     160.0000000 magnetization 
 augmentation part      160.0000000 magnetization 

 Free energy of the ion-electron system (eV)
  ---------------------------------------------------
  alpha Z        PSCENC =       341.29524080
  Ewald energy   TEWEN  =     74421.33385243
  -1/2 Hartree   DENC   =    -86623.64720304
  -exchange  EXHF       =         0.00000000
  -V(xc)+E(xc)   XCENC  =        55.83160137
  PAW double counting   =     11137.97656685   -10685.44471970
  entropy T*S    EENTRO =        -0.02122554
  eigenvalues    EBANDS =      -363.80300763
  atomic energy  EATOM  =     11665.65139175
  ---------------------------------------------------
  free energy    TOTEN  =       -50.82750271 eV

  energy without entropy =      -50.80627717  energy(sigma->0) =      -50.82042753


--------------------------------------------------------------------------------------------------------




----------------------------------------- Iteration    1(   3)  ---------------------------------------


     EDDAV:  cpu time   13.59: real time   14.91
       DOS:  cpu time    0.00: real time    0.00
    --------------------------------------------
      LOOP:  cpu time   13.59: real time   14.93

 eigenvalue-minimisations  :  4728
 total energy-change (2. order) :-0.4707673E+02  (-0.4567272E+02)
 number of electron     160.0000000 magnetization 
 augmentation part      160.0000000 magnetization 

 Free energy of the ion-electron system (eV)
  ---------------------------------------------------
  alpha Z        PSCENC =       341.29524080
  Ewald energy   TEWEN  =     74421.33385243
  -1/2 Hartree   DENC   =    -86623.64720304
  -exchange  EXHF       =         0.00000000
  -V(xc)+E(xc)   XCENC  =        55.83160137
  PAW double counting   =     11137.97656685   -10685.44471970
  entropy T*S    EENTRO =        -0.03586641
  eigenvalues    EBANDS =      -410.86509588
  atomic energy  EATOM  =     11665.65139175
  ---------------------------------------------------
  free energy    TOTEN  =       -97.90423183 eV

  energy without entropy =      -97.86836542  energy(sigma->0) =      -97.89227636


--------------------------------------------------------------------------------------------------------




----------------------------------------- Iteration    1(   4)  ---------------------------------------


     EDDAV:  cpu time   92.83: real time   98.87
       DOS:  cpu time    0.00: real time    0.00
    --------------------------------------------
      LOOP:  cpu time   92.84: real time   98.90

 eigenvalue-minimisations  :  5400
 total energy-change (2. order) :-0.9938766E+00  (-0.9904761E+00)
 number of electron     160.0000000 magnetization 
 augmentation part      160.0000000 magnetization 

 Free energy of the ion-electron system (eV)
  ---------------------------------------------------
  alpha Z        PSCENC =       341.29524080
  Ewald energy   TEWEN  =     74421.33385243
  -1/2 Hartree   DENC   =    -86623.64720304
  -exchange  EXHF       =         0.00000000
  -V(xc)+E(xc)   XCENC  =        55.83160137
  PAW double counting   =     11137.97656685   -10685.44471970
  entropy T*S    EENTRO =        -0.03307724
  eigenvalues    EBANDS =      -411.86176165
  atomic energy  EATOM  =     11665.65139175
  ---------------------------------------------------
  free energy    TOTEN  =       -98.89810843 eV

  energy without entropy =      -98.86503119  energy(sigma->0) =      -98.88708268


--------------------------------------------------------------------------------------------------------




----------------------------------------- Iteration    1(   5)  ---------------------------------------


     EDDAV:  cpu time   56.99: real time   60.37
       DOS:  cpu time    0.00: real time    0.00
    CHARGE:  cpu time    0.70: real time    0.76
    MIXING:  cpu time    0.00: real time    0.00
    --------------------------------------------
      LOOP:  cpu time   57.70: real time   61.15

 eigenvalue-minimisations  :  5832
 total energy-change (2. order) :-0.2770063E-01  (-0.2767833E-01)
 number of electron     160.0000100 magnetization 
 augmentation part       46.5435944 magnetization 

 Broyden mixing:
  rms(total) = 0.44700E+01    rms(broyden)= 0.44700E+01
  rms(prec ) = 0.45063E+01
  weight for this iteration     100.00

 Free energy of the ion-electron system (eV)
  ---------------------------------------------------
  alpha Z        PSCENC =       341.29524080
  Ewald energy   TEWEN  =     74421.33385243
  -1/2 Hartree   DENC   =    -86623.64720304
  -exchange  EXHF       =         0.00000000
  -V(xc)+E(xc)   XCENC  =        55.83160137
  PAW double counting   =     11137.97656685   -10685.44471970
  entropy T*S    EENTRO =        -0.03286555
  eigenvalues    EBANDS =      -411.88967398
  atomic energy  EATOM  =     11665.65139175
  ---------------------------------------------------
  free energy    TOTEN  =       -98.92580906 eV

  energy without entropy =      -98.89294352  energy(sigma->0) =      -98.91485388


--------------------------------------------------------------------------------------------------------




----------------------------------------- Iteration    1(   6)  ---------------------------------------


    POTLOK:  cpu time    1.13: real time    1.19
    SETDIJ:  cpu time    0.25: real time    0.26
     EDDAV:  cpu time   29.25: real time   30.53
       DOS:  cpu time    0.00: real time    0.00
    CHARGE:  cpu time    0.79: real time    0.80
    MIXING:  cpu time    0.01: real time    0.02
    --------------------------------------------
      LOOP:  cpu time   31.43: real time   32.81

 eigenvalue-minimisations  :  4560
 total energy-change (2. order) : 0.3886153E+01  (-0.2777674E+01)
 number of electron     160.0000076 magnetization 
 augmentation part       49.0733781 magnetization 

 Broyden mixing:
  rms(total) = 0.31397E+01    rms(broyden)= 0.31397E+01
  rms(prec ) = 0.32372E+01
  weight for this iteration     100.00

 eigenvalues of (default mixing * dielectric matrix)
  average eigenvalue GAMMA=   1.4701
  1.4701

 Free energy of the ion-electron system (eV)
  ---------------------------------------------------
  alpha Z        PSCENC =       341.29524080
  Ewald energy   TEWEN  =     74421.33385243
  -1/2 Hartree   DENC   =    -86434.62221058
  -exchange  EXHF       =         0.00000000
  -V(xc)+E(xc)   XCENC  =        51.76310263
  PAW double counting   =     12405.03893025   -11976.81858661
  entropy T*S    EENTRO =        -0.07213069
  eigenvalues    EBANDS =      -568.60924644
  atomic energy  EATOM  =     11665.65139175
  ---------------------------------------------------
  free energy    TOTEN  =       -95.03965646 eV

  energy without entropy =      -94.96752577  energy(sigma->0) =      -95.01561289


--------------------------------------------------------------------------------------------------------




----------------------------------------- Iteration    1(   7)  ---------------------------------------


    POTLOK:  cpu time    0.10: real time    0.10
    SETDIJ:  cpu time    0.01: real time    0.01
     EDDAV:  cpu time   13.87: real time   14.13
       DOS:  cpu time    0.00: real time    0.00
    CHARGE:  cpu time    0.73: real time    0.75
    MIXING:  cpu time    0.00: real time    0.00
    --------------------------------------------
      LOOP:  cpu time   14.71: real time   15.43

 eigenvalue-minimisations  :  4608
 total energy-change (2. order) :-0.2529553E+02  (-0.1505827E+02)
 number of electron     160.0000134 magnetization 
 augmentation part       48.1921721 magnetization 

 Broyden mixing:
  rms(total) = 0.44850E+01    rms(broyden)= 0.44849E+01
  rms(prec ) = 0.50896E+01
  weight for this iteration     100.00

 eigenvalues of (default mixing * dielectric matrix)
  average eigenvalue GAMMA=   1.2556
  2.2420  0.2693

 Free energy of the ion-electron system (eV)
  ---------------------------------------------------
  alpha Z        PSCENC =       341.29524080
  Ewald energy   TEWEN  =     74421.33385243
  -1/2 Hartree   DENC   =    -86603.09648915
  -exchange  EXHF       =         0.00000000
  -V(xc)+E(xc)   XCENC  =        50.30525137
  PAW double counting   =     13464.28070988   -13048.22961477
  entropy T*S    EENTRO =         0.00988619
  eigenvalues    EBANDS =      -411.88541095
  atomic energy  EATOM  =     11665.65139175
  ---------------------------------------------------
  free energy    TOTEN  =      -120.33518245 eV

  energy without entropy =     -120.34506863  energy(sigma->0) =     -120.33847784


--------------------------------------------------------------------------------------------------------




----------------------------------------- Iteration    1(   8)  ---------------------------------------


    POTLOK:  cpu time    0.07: real time    0.08
    SETDIJ:  cpu time    0.01: real time    0.01
     EDDAV:  cpu time   13.90: real time   14.93
       DOS:  cpu time    0.00: real time    0.00
    CHARGE:  cpu time    0.75: real time    0.80
    MIXING:  cpu time    0.00: real time    0.00
    --------------------------------------------
      LOOP:  cpu time   14.74: real time   15.83

 eigenvalue-minimisations  :  4848
 total energy-change (2. order) : 0.2622936E+02  (-0.5057141E+01)
 number of electron     160.0000115 magnetization 
 augmentation part       50.0532076 magnetization 

 Broyden mixing:
  rms(total) = 0.12516E+01    rms(broyden)= 0.12516E+01
  rms(prec ) = 0.14354E+01
  weight for this iteration     100.00

 eigenvalues of (default mixing * dielectric matrix)
  average eigenvalue GAMMA=   1.1119
  1.8912  1.1269  0.3176

 Free energy of the ion-electron system (eV)
  ---------------------------------------------------
  alpha Z        PSCENC =       341.29524080
  Ewald energy   TEWEN  =     74421.33385243
  -1/2 Hartree   DENC   =    -86436.92010238
  -exchange  EXHF       =         0.00000000
  -V(xc)+E(xc)   XCENC  =        49.39503891
  PAW double counting   =     14388.07449056   -13983.79601151
  entropy T*S    EENTRO =        -0.07002435
  eigenvalues    EBANDS =      -539.06970087
  atomic energy  EATOM  =     11665.65139175
  ---------------------------------------------------
  free energy    TOTEN  =       -94.10582467 eV

  energy without entropy =      -94.03580031  energy(sigma->0) =      -94.08248322


--------------------------------------------------------------------------------------------------------




----------------------------------------- Iteration    1(   9)  ---------------------------------------


    POTLOK:  cpu time    9.13: real time    9.16
    SETDIJ:  cpu time    0.30: real time    0.30
     EDDAV:  cpu time   15.82: real time   16.81
       DOS:  cpu time    0.00: real time    0.00
    CHARGE:  cpu time    0.76: real time    0.82
    MIXING:  cpu time    0.00: real time    0.00
    --------------------------------------------
      LOOP:  cpu time   26.02: real time   27.11

 eigenvalue-minimisations  :  4800
 total energy-change (2. order) : 0.4935515E+00  (-0.2656947E+01)
 number of electron     160.0000083 magnetization 
 augmentation part       49.6416399 magnetization 

 Broyden mixing:
  rms(total) = 0.11345E+01    rms(broyden)= 0.11343E+01
  rms(prec ) = 0.12543E+01
  weight for this iteration     100.00

 eigenvalues of (default mixing * dielectric matrix)
  average eigenvalue GAMMA=   1.1412
  2.4435  1.1321  0.3458  0.6435

 Free energy of the ion-electron system (eV)
  ---------------------------------------------------
  alpha Z        PSCENC =       341.29524080
  Ewald energy   TEWEN  =     74421.33385243
  -1/2 Hartree   DENC   =    -86433.59248481
  -exchange  EXHF       =         0.00000000
  -V(xc)+E(xc)   XCENC  =        50.34046344
  PAW double counting   =     14435.74978898   -14027.70392018
  entropy T*S    EENTRO =        -0.05293339
  eigenvalues    EBANDS =      -546.63367222
  atomic energy  EATOM  =     11665.65139175
  ---------------------------------------------------
  free energy    TOTEN  =       -93.61227319 eV

  energy without entropy =      -93.55933980  energy(sigma->0) =      -93.59462873


--------------------------------------------------------------------------------------------------------




----------------------------------------- Iteration    1(  10)  ---------------------------------------


    POTLOK:  cpu time    0.07: real time    0.08
    SETDIJ:  cpu time    0.01: real time    0.01
     EDDAV:  cpu time   13.18: real time   14.51
       DOS:  cpu time    0.00: real time    0.00
    CHARGE:  cpu time    0.75: real time    0.82
    MIXING:  cpu time    0.00: real time    0.00
    --------------------------------------------
      LOOP:  cpu time   14.02: real time   15.43

 eigenvalue-minimisations  :  4680
 total energy-change (2. order) : 0.7950871E+00  (-0.3642441E+00)
 number of electron     160.0000096 magnetization 
 augmentation part       49.6381678 magnetization 

 Broyden mixing:
  rms(total) = 0.30393E+00    rms(broyden)= 0.30387E+00
  rms(prec ) = 0.36789E+00
  weight for this iteration     100.00

 eigenvalues of (default mixing * dielectric matrix)
  average eigenvalue GAMMA=   0.9372
  2.4190  1.1242  0.6540  0.3468  0.1420

 Free energy of the ion-electron system (eV)
  ---------------------------------------------------
  alpha Z        PSCENC =       341.29524080
  Ewald energy   TEWEN  =     74421.33385243
  -1/2 Hartree   DENC   =    -86439.70127296
  -exchange  EXHF       =         0.00000000
  -V(xc)+E(xc)   XCENC  =        50.08695341
  PAW double counting   =     14680.48083193   -14275.17787099
  entropy T*S    EENTRO =        -0.03228272
  eigenvalues    EBANDS =      -536.75402980
  atomic energy  EATOM  =     11665.65139175
  ---------------------------------------------------
  free energy    TOTEN  =       -92.81718614 eV

  energy without entropy =      -92.78490342  energy(sigma->0) =      -92.80642523


--------------------------------------------------------------------------------------------------------




----------------------------------------- Iteration    1(  11)  ---------------------------------------


    POTLOK:  cpu time    0.07: real time    0.08
    SETDIJ:  cpu time    0.01: real time    0.01
     EDDAV:  cpu time   14.51: real time   15.98
       DOS:  cpu time    0.00: real time    0.00
    CHARGE:  cpu time    0.76: real time    0.83
    MIXING:  cpu time    0.00: real time    0.00
    --------------------------------------------
      LOOP:  cpu time   15.36: real time   16.91

 eigenvalue-minimisations  :  5232
 total energy-change (2. order) : 0.1111141E-01  (-0.8925798E-01)
 number of electron     160.0000097 magnetization 
 augmentation part       49.6309475 magnetization 

 Broyden mixing:
  rms(total) = 0.28086E+00    rms(broyden)= 0.28084E+00
  rms(prec ) = 0.34380E+00
  weight for this iteration     100.00

 eigenvalues of (default mixing * dielectric matrix)
  average eigenvalue GAMMA=   0.8107
  2.3781  1.1067  0.6793  0.3516  0.2652  0.0834

 Free energy of the ion-electron system (eV)
  ---------------------------------------------------
  alpha Z        PSCENC =       341.29524080
  Ewald energy   TEWEN  =     74421.33385243
  -1/2 Hartree   DENC   =    -86440.59403106
  -exchange  EXHF       =         0.00000000
  -V(xc)+E(xc)   XCENC  =        50.08762180
  PAW double counting   =     14661.46388166   -14256.09791160
  entropy T*S    EENTRO =        -0.03283399
  eigenvalues    EBANDS =      -535.91328652
  atomic energy  EATOM  =     11665.65139175
  ---------------------------------------------------
  free energy    TOTEN  =       -92.80607473 eV

  energy without entropy =      -92.77324074  energy(sigma->0) =      -92.79513007


--------------------------------------------------------------------------------------------------------




----------------------------------------- Iteration    1(  12)  ---------------------------------------


    POTLOK:  cpu time    0.08: real time    0.08
    SETDIJ:  cpu time    0.01: real time    0.01
     EDDAV:  cpu time   15.72: real time   15.81
       DOS:  cpu time    0.00: real time    0.00
    CHARGE:  cpu time    0.83: real time    0.83
    MIXING:  cpu time    0.00: real time    0.00
    --------------------------------------------
      LOOP:  cpu time   16.63: real time   16.75

 eigenvalue-minimisations  :  4920
 total energy-change (2. order) : 0.3768111E-01  (-0.2553856E-01)
 number of electron     160.0000098 magnetization 
 augmentation part       49.6178254 magnetization 

 Broyden mixing:
  rms(total) = 0.14563E+00    rms(broyden)= 0.14562E+00
  rms(prec ) = 0.14660E+00
  weight for this iteration     100.00

 eigenvalues of (default mixing * dielectric matrix)
  average eigenvalue GAMMA=   0.8821
  2.3848  1.0399  0.7885  0.7885  0.7477  0.3421  0.0831

 Free energy of the ion-electron system (eV)
  ---------------------------------------------------
  alpha Z        PSCENC =       341.29524080
  Ewald energy   TEWEN  =     74421.33385243
  -1/2 Hartree   DENC   =    -86442.73785845
  -exchange  EXHF       =         0.00000000
  -V(xc)+E(xc)   XCENC  =        50.09912931
  PAW double counting   =     14604.27213425   -14198.65979435
  entropy T*S    EENTRO =        -0.03459533
  eigenvalues    EBANDS =      -533.98789402
  atomic energy  EATOM  =     11665.65139175
  ---------------------------------------------------
  free energy    TOTEN  =       -92.76839362 eV

  energy without entropy =      -92.73379829  energy(sigma->0) =      -92.75686184


--------------------------------------------------------------------------------------------------------




----------------------------------------- Iteration    1(  13)  ---------------------------------------


    POTLOK:  cpu time    0.77: real time    0.82
    SETDIJ:  cpu time    0.24: real time    0.26
     EDDAV:  cpu time  186.04: real time  195.33
       DOS:  cpu time    0.00: real time    0.00
    CHARGE:  cpu time    0.74: real time    0.80
    MIXING:  cpu time    0.00: real time    0.00
    --------------------------------------------
      LOOP:  cpu time  187.80: real time  197.24

 eigenvalue-minimisations  :  5328
 total energy-change (2. order) :-0.8081597E-03  (-0.3565184E-02)
 number of electron     160.0000098 magnetization 
 augmentation part       49.6073007 magnetization 

 Broyden mixing:
  rms(total) = 0.10764E+00    rms(broyden)= 0.10764E+00
  rms(prec ) = 0.12266E+00
  weight for this iteration     100.00

 eigenvalues of (default mixing * dielectric matrix)
  average eigenvalue GAMMA=   0.9284
  2.3559  1.2491  1.2491  0.8431  0.8431  0.3412  0.4619  0.0836

 Free energy of the ion-electron system (eV)
  ---------------------------------------------------
  alpha Z        PSCENC =       341.29524080
  Ewald energy   TEWEN  =     74421.33385243
  -1/2 Hartree   DENC   =    -86444.90274373
  -exchange  EXHF       =         0.00000000
  -V(xc)+E(xc)   XCENC  =        50.12960895
  PAW double counting   =     14528.96887835   -14123.26862384
  entropy T*S    EENTRO =        -0.03498081
  eigenvalues    EBANDS =      -531.94182568
  atomic energy  EATOM  =     11665.65139175
  ---------------------------------------------------
  free energy    TOTEN  =       -92.76920178 eV

  energy without entropy =      -92.73422097  energy(sigma->0) =      -92.75754151


--------------------------------------------------------------------------------------------------------




----------------------------------------- Iteration    1(  14)  ---------------------------------------


    POTLOK:  cpu time    1.59: real time    1.67
    SETDIJ:  cpu time    0.35: real time    0.36
     EDDAV:  cpu time   17.04: real time   18.35
       DOS:  cpu time    0.00: real time    0.00
    CHARGE:  cpu time    0.76: real time    0.81
    MIXING:  cpu time    0.00: real time    0.00
    --------------------------------------------
      LOOP:  cpu time   19.75: real time   21.22

 eigenvalue-minimisations  :  4992
 total energy-change (2. order) : 0.2351564E-02  (-0.5314071E-02)
 number of electron     160.0000098 magnetization 
 augmentation part       49.5941549 magnetization 

 Broyden mixing:
  rms(total) = 0.65200E-01    rms(broyden)= 0.65194E-01
  rms(prec ) = 0.68314E-01
  weight for this iteration     100.00

 eigenvalues of (default mixing * dielectric matrix)
  average eigenvalue GAMMA=   0.9861
  2.2642  2.2642  1.2985  0.7946  0.7946  0.7475  0.3417  0.2862  0.0837

 Free energy of the ion-electron system (eV)
  ---------------------------------------------------
  alpha Z        PSCENC =       341.29524080
  Ewald energy   TEWEN  =     74421.33385243
  -1/2 Hartree   DENC   =    -86447.66073529
  -exchange  EXHF       =         0.00000000
  -V(xc)+E(xc)   XCENC  =        50.16605808
  PAW double counting   =     14457.15503348   -14051.32033003
  entropy T*S    EENTRO =        -0.03517069
  eigenvalues    EBANDS =      -529.35219075
  atomic energy  EATOM  =     11665.65139175
  ---------------------------------------------------
  free energy    TOTEN  =       -92.76685022 eV

  energy without entropy =      -92.73167953  energy(sigma->0) =      -92.75512666


--------------------------------------------------------------------------------------------------------




----------------------------------------- Iteration    1(  15)  ---------------------------------------


    POTLOK:  cpu time    0.07: real time    0.08
    SETDIJ:  cpu time    0.01: real time    0.01
     EDDAV:  cpu time   14.10: real time   15.29
       DOS:  cpu time    0.00: real time    0.00
    CHARGE:  cpu time    0.74: real time    0.79
    MIXING:  cpu time    0.00: real time    0.00
    --------------------------------------------
      LOOP:  cpu time   14.93: real time   16.18

 eigenvalue-minimisations  :  5016
 total energy-change (2. order) : 0.1524835E-02  (-0.1477519E-02)
 number of electron     160.0000098 magnetization 
 augmentation part       49.5828261 magnetization 

 Broyden mixing:
  rms(total) = 0.33815E-01    rms(broyden)= 0.33810E-01
  rms(prec ) = 0.40641E-01
  weight for this iteration     100.00

 eigenvalues of (default mixing * dielectric matrix)
  average eigenvalue GAMMA=   1.0219
  2.4333  2.4333  1.2967  0.9469  0.9469  0.7269  0.7269  0.3415  0.2830  0.0837

 Free energy of the ion-electron system (eV)
  ---------------------------------------------------
  alpha Z        PSCENC =       341.29524080
  Ewald energy   TEWEN  =     74421.33385243
  -1/2 Hartree   DENC   =    -86449.88302949
  -exchange  EXHF       =         0.00000000
  -V(xc)+E(xc)   XCENC  =        50.19325947
  PAW double counting   =     14420.63363930   -14014.66520175
  entropy T*S    EENTRO =        -0.03527951
  eigenvalues    EBANDS =      -527.28919838
  atomic energy  EATOM  =     11665.65139175
  ---------------------------------------------------
  free energy    TOTEN  =       -92.76532538 eV

  energy without entropy =      -92.73004588  energy(sigma->0) =      -92.75356555


--------------------------------------------------------------------------------------------------------




----------------------------------------- Iteration    1(  16)  ---------------------------------------


    POTLOK:  cpu time    0.07: real time    0.08
    SETDIJ:  cpu time    0.01: real time    0.01
     EDDAV:  cpu time   13.30: real time   14.42
       DOS:  cpu time    0.00: real time    0.00
    CHARGE:  cpu time    0.73: real time    0.79
    MIXING:  cpu time    0.00: real time    0.00
    --------------------------------------------
      LOOP:  cpu time   14.12: real time   15.30

 eigenvalue-minimisations  :  4656
 total energy-change (2. order) : 0.5589407E-03  (-0.2404436E-03)
 number of electron     160.0000098 magnetization 
 augmentation part       49.5807099 magnetization 

 Broyden mixing:
  rms(total) = 0.10762E-01    rms(broyden)= 0.10761E-01
  rms(prec ) = 0.11996E-01
  weight for this iteration     100.00

 eigenvalues of (default mixing * dielectric matrix)
  average eigenvalue GAMMA=   1.0576
  2.3944  2.3944  1.4505  1.2008  1.2008  0.7517  0.7517  0.7809  0.3415  0.2826
  0.0837

 Free energy of the ion-electron system (eV)
  ---------------------------------------------------
  alpha Z        PSCENC =       341.29524080
  Ewald energy   TEWEN  =     74421.33385243
  -1/2 Hartree   DENC   =    -86450.84617789
  -exchange  EXHF       =         0.00000000
  -V(xc)+E(xc)   XCENC  =        50.20424488
  PAW double counting   =     14416.28500996   -14010.27346371
  entropy T*S    EENTRO =        -0.03509374
  eigenvalues    EBANDS =      -526.37977093
  atomic energy  EATOM  =     11665.65139175
  ---------------------------------------------------
  free energy    TOTEN  =       -92.76476644 eV

  energy without entropy =      -92.72967271  energy(sigma->0) =      -92.75306853


--------------------------------------------------------------------------------------------------------




----------------------------------------- Iteration    1(  17)  ---------------------------------------


    POTLOK:  cpu time    0.07: real time    0.08
    SETDIJ:  cpu time    0.01: real time    0.01
     EDDAV:  cpu time   10.33: real time   11.20
       DOS:  cpu time    0.00: real time    0.00
    --------------------------------------------
      LOOP:  cpu time   10.41: real time   11.29

 eigenvalue-minimisations  :  3264
 total energy-change (2. order) : 0.3654626E-04  (-0.6220973E-04)
 number of electron     160.0000098 magnetization 
 augmentation part       49.5807099 magnetization 

 Free energy of the ion-electron system (eV)
  ---------------------------------------------------
  alpha Z        PSCENC =       341.29524080
  Ewald energy   TEWEN  =     74421.33385243
  -1/2 Hartree   DENC   =    -86451.68233382
  -exchange  EXHF       =         0.00000000
  -V(xc)+E(xc)   XCENC  =        50.20816384
  PAW double counting   =     14425.06410698   -14019.05833318
  entropy T*S    EENTRO =        -0.03496927
  eigenvalues    EBANDS =      -525.54184943
  atomic energy  EATOM  =     11665.65139175
  ---------------------------------------------------
  free energy    TOTEN  =       -92.76472990 eV

  energy without entropy =      -92.72976063  energy(sigma->0) =      -92.75307347


--------------------------------------------------------------------------------------------------------




 average (electrostatic) potential at core
  the test charge radii are     1.2059
  (the norm of the test charge is              1.0000)
       1 -73.7007       2 -73.7007       3 -73.7007       4 -73.7007       5 -74.1741
       6 -74.1741       7 -74.1741       8 -74.1741       9 -74.1702      10 -74.1702
      11 -74.1702      12 -74.1702      13 -73.6975      14 -73.6975      15 -73.6975
      16 -73.6975
 
 
 
 E-fermi :  -0.0163     XC(G=0):  -5.3011     alpha+bet : -5.6225


 k-point   1 :       0.0625    0.0625    0.0000
  band No.  band energies     occupation 
      1      -9.6186      2.00000
      2      -8.2802      2.00000
      3      -7.1271      2.00000
      4      -7.0816      2.00000
      5      -6.8751      2.00000
      6      -6.8507      2.00000
      7      -6.8507      2.00000
      8      -6.7165      2.00000
      9      -6.7021      2.00000
     10      -6.7021      2.00000
     11      -6.2527      2.00000
     12      -6.2515      2.00000
     13      -6.2515      2.00000
     14      -5.9983      2.00000
     15      -5.9719      2.00000
     16      -5.9719      2.00000
     17      -5.8738      2.00000
     18      -5.8605      2.00000
     19      -5.8605      2.00000
     20      -5.0783      2.00000
     21      -5.0783      2.00000
     22      -5.0767      2.00000
     23      -4.0405      2.00000
     24      -4.0405      2.00000
     25      -4.0232      2.00000
     26      -3.8822      2.00000
     27      -3.8822      2.00000
     28      -3.8746      2.00000
     29      -3.8692      2.00000
     30      -3.7601      2.00000
     31      -3.7111      2.00000
     32      -3.6637      2.00000
     33      -3.5615      2.00000
     34      -3.5121      2.00000
     35      -3.4061      2.00000
     36      -3.4061      2.00000
     37      -3.4027      2.00000
     38      -3.1828      2.00000
     39      -3.1389      2.00000
     40      -3.0875      2.00000
     41      -3.0338      2.00000
     42      -2.8221      2.00000
     43      -2.7783      2.00000
     44      -2.7685      2.00000
     45      -2.7685      2.00000
     46      -2.3868      2.00000
     47      -2.3868      2.00000
     48      -2.2767      2.00000
     49      -2.1616      2.00000
     50      -2.0709      2.00000
     51      -2.0709      2.00000
     52      -1.6157      2.00000
     53      -1.6093      2.00000
     54      -1.2479      2.00000
     55      -1.2247      2.00000
     56      -0.9825      2.00000
     57      -0.9825      2.00000
     58      -0.9557      2.00000
     59      -0.8068      2.00000
     60      -0.8044      2.00000
     61      -0.8044      2.00000
     62      -0.7857      2.00000
     63      -0.4937      2.00378
     64      -0.3377      2.04548
     65      -0.3377      2.04548
     66      -0.2903      2.06562
     67      -0.2505      2.06997
     68      -0.1460      1.88144
     69      -0.1460      1.88144
     70      -0.1321      1.82077
     71      -0.0934      1.60232
     72      -0.0105      0.95085
     73       0.0044      0.82621
     74       0.0044      0.82621
     75       0.0501      0.47120
     76       0.2175     -0.06988
     77       0.2175     -0.06988
     78       0.2374     -0.07037
     79       0.4311     -0.00691
     80       0.4311     -0.00691
     81       0.4863     -0.00218
     82       0.4863     -0.00218
     83       0.5008     -0.00157
     84       0.5365     -0.00066
     85       0.7168      0.00000
     86       0.8819      0.00000
     87       1.1271      0.00000
     88       1.1271      0.00000
     89       2.0143      0.00000
     90       2.3399      0.00000
     91       2.4541      0.00000
     92       2.4541      0.00000
     93       2.5908      0.00000
     94       2.5908      0.00000
     95       3.4211      0.00000
     96       3.4211      0.00000

 k-point   2 :       0.1875    0.0625    0.0000
  band No.  band energies     occupation 
      1      -9.4134      2.00000
      2      -8.0787      2.00000
      3      -6.9201      2.00000
      4      -6.8898      2.00000
      5      -6.8581      2.00000
      6      -6.7803      2.00000
      7      -6.6621      2.00000
      8      -6.6331      2.00000
      9      -6.5884      2.00000
     10      -6.5264      2.00000
     11      -6.1560      2.00000
     12      -6.1510      2.00000
     13      -6.1386      2.00000
     14      -5.9662      2.00000
     15      -5.8947      2.00000
     16      -5.7705      2.00000
     17      -5.7648      2.00000
     18      -5.7194      2.00000
     19      -5.6542      2.00000
     20      -5.0201      2.00000
     21      -5.0166      2.00000
     22      -5.0102      2.00000
     23      -4.1871      2.00000
     24      -4.0897      2.00000
     25      -4.0340      2.00000
     26      -4.0041      2.00000
     27      -3.9488      2.00000
     28      -3.8333      2.00000
     29      -3.8123      2.00000
     30      -3.7866      2.00000
     31      -3.7680      2.00000
     32      -3.5109      2.00000
     33      -3.4438      2.00000
     34      -3.4081      2.00000
     35      -3.3826      2.00000
     36      -3.3788      2.00000
     37      -3.3616      2.00000
     38      -3.2992      2.00000
     39      -3.1965      2.00000
     40      -3.0012      2.00000
     41      -2.9881      2.00000
     42      -2.9663      2.00000
     43      -2.9249      2.00000
     44      -2.9150      2.00000
     45      -2.8865      2.00000
     46      -2.7480      2.00000
     47      -2.5761      2.00000
     48      -2.4297      2.00000
     49      -2.1690      2.00000
     50      -2.0735      2.00000
     51      -1.9882      2.00000
     52      -1.7525      2.00000
     53      -1.6893      2.00000
     54      -1.4108      2.00000
     55      -1.2374      2.00000
     56      -1.1692      2.00000
     57      -1.1604      2.00000
     58      -1.1060      2.00000
     59      -1.0647      2.00000
     60      -1.0646      2.00000
     61      -1.0592      2.00000
     62      -1.0119      2.00000
     63      -0.8679      2.00000
     64      -0.8112      2.00000
     65      -0.7710      2.00000
     66      -0.7036      2.00001
     67      -0.4017      2.02008
     68      -0.3624      2.03445
     69      -0.3433      2.04290
     70      -0.3127      2.05686
     71      -0.2061      2.03807
     72      -0.1934      2.01765
     73      -0.1785      1.98582
     74      -0.1429      1.86853
     75      -0.0475      1.26056
     76      -0.0459      1.24817
     77      -0.0357      1.16354
     78       0.0175      0.71883
     79       0.0809      0.27585
     80       0.0866      0.24423
     81       0.3028     -0.04656
     82       0.3164     -0.04034
     83       0.3319     -0.03359
     84       0.4512     -0.00464
     85       0.5232     -0.00092
     86       0.9524      0.00000
     87       1.0191      0.00000
     88       1.6083      0.00000
     89       1.7159      0.00000
     90       1.9800      0.00000
     91       2.0465      0.00000
     92       2.4784      0.00000
     93       2.9364      0.00000
     94       3.3531      0.00000
     95       3.8284      0.00000
     96       4.3179      0.00000

 k-point   3 :       0.3125    0.0625    0.0000
  band No.  band energies     occupation 
      1      -8.9572      2.00000
      2      -7.6439      2.00000
      3      -6.9575      2.00000
      4      -6.5225      2.00000
      5      -6.5195      2.00000
      6      -6.5028      2.00000
      7      -6.4615      2.00000
      8      -6.3223      2.00000
      9      -6.2919      2.00000
     10      -6.2263      2.00000
     11      -6.0171      2.00000
     12      -5.9099      2.00000
     13      -5.8672      2.00000
     14      -5.8519      2.00000
     15      -5.6355      2.00000
     16      -5.5857      2.00000
     17      -5.4450      2.00000
     18      -5.3466      2.00000
     19      -5.2515      2.00000
     20      -4.8939      2.00000
     21      -4.8783      2.00000
     22      -4.8587      2.00000
     23      -4.4087      2.00000
     24      -4.3562      2.00000
     25      -4.2451      2.00000
     26      -4.1709      2.00000
     27      -4.0795      2.00000
     28      -3.9810      2.00000
     29      -3.7699      2.00000
     30      -3.7201      2.00000
     31      -3.5803      2.00000
     32      -3.5043      2.00000
     33      -3.4666      2.00000
     34      -3.4522      2.00000
     35      -3.4488      2.00000
     36      -3.3947      2.00000
     37      -3.2502      2.00000
     38      -3.2441      2.00000
     39      -3.2372      2.00000
     40      -3.2278      2.00000
     41      -3.2257      2.00000
     42      -3.1594      2.00000
     43      -3.0637      2.00000
     44      -3.0200      2.00000
     45      -2.9124      2.00000
     46      -2.6956      2.00000
     47      -2.6907      2.00000
     48      -2.5596      2.00000
     49      -2.2026      2.00000
     50      -2.1966      2.00000
     51      -2.1501      2.00000
     52      -2.0157      2.00000
     53      -2.0040      2.00000
     54      -1.9182      2.00000
     55      -1.8900      2.00000
     56      -1.8280      2.00000
     57      -1.7812      2.00000
     58      -1.7511      2.00000
     59      -1.6987      2.00000
     60      -1.5833      2.00000
     61      -1.3809      2.00000
     62      -1.2602      2.00000
     63      -1.2325      2.00000
     64      -1.1823      2.00000
     65      -1.1767      2.00000
     66      -0.9554      2.00000
     67      -0.8393      2.00000
     68      -0.7988      2.00000
     69      -0.7932      2.00000
     70      -0.7229      2.00001
     71      -0.6704      2.00004
     72      -0.6320      2.00012
     73      -0.5242      2.00194
     74      -0.4440      2.00995
     75      -0.3305      2.04881
     76      -0.2901      2.06569
     77      -0.2617      2.07091
     78      -0.1634      1.94334
     79      -0.0856      1.54973
     80      -0.0426      1.22071
     81      -0.0042      0.89790
     82      -0.0031      0.88897
     83       0.1205      0.09172
     84       0.2763     -0.05853
     85       0.2838     -0.05527
     86       1.2200      0.00000
     87       1.2450      0.00000
     88       1.3364      0.00000
     89       1.7237      0.00000
     90       2.4865      0.00000
     91       2.7838      0.00000
     92       2.8098      0.00000
     93       3.0775      0.00000
     94       3.6565      0.00000
     95       4.0741      0.00000
     96       4.8706      0.00000

 k-point   4 :       0.4375    0.0625    0.0000
  band No.  band energies     occupation 
      1      -8.3148      2.00000
      2      -7.3243      2.00000
      3      -7.0879      2.00000
      4      -6.5298      2.00000
      5      -6.1953      2.00000
      6      -6.0794      2.00000
      7      -5.9844      2.00000
      8      -5.9687      2.00000
      9      -5.9483      2.00000
     10      -5.9102      2.00000
     11      -5.8908      2.00000
     12      -5.5861      2.00000
     13      -5.5630      2.00000
     14      -5.4567      2.00000
     15      -5.3828      2.00000
     16      -5.3778      2.00000
     17      -5.2125      2.00000
     18      -4.9036      2.00000
     19      -4.8584      2.00000
     20      -4.7952      2.00000
     21      -4.6947      2.00000
     22      -4.6444      2.00000
     23      -4.6317      2.00000
     24      -4.5389      2.00000
     25      -4.3886      2.00000
     26      -4.3830      2.00000
     27      -4.3152      2.00000
     28      -4.0640      2.00000
     29      -4.0111      2.00000
     30      -3.9825      2.00000
     31      -3.8565      2.00000
     32      -3.8079      2.00000
     33      -3.7198      2.00000
     34      -3.6382      2.00000
     35      -3.5546      2.00000
     36      -3.4199      2.00000
     37      -3.3666      2.00000
     38      -3.1892      2.00000
     39      -3.1850      2.00000
     40      -3.1514      2.00000
     41      -3.0582      2.00000
     42      -3.0139      2.00000
     43      -2.9874      2.00000
     44      -2.9432      2.00000
     45      -2.9285      2.00000
     46      -2.9255      2.00000
     47      -2.7268      2.00000
     48      -2.7075      2.00000
     49      -2.6692      2.00000
     50      -2.6566      2.00000
     51      -2.5954      2.00000
     52      -2.5418      2.00000
     53      -2.4448      2.00000
     54      -2.3335      2.00000
     55      -2.1830      2.00000
     56      -2.1717      2.00000
     57      -2.1701      2.00000
     58      -2.1052      2.00000
     59      -1.9940      2.00000
     60      -1.7012      2.00000
     61      -1.6848      2.00000
     62      -1.5679      2.00000
     63      -1.5270      2.00000
     64      -1.5083      2.00000
     65      -1.3995      2.00000
     66      -1.3612      2.00000
     67      -1.3275      2.00000
     68      -1.1747      2.00000
[...]
     10      -5.7363      2.00000
     11      -5.7009      2.00000
     12      -5.4747      2.00000
     13      -5.3395      2.00000
     14      -5.3395      2.00000
     15      -5.2217      2.00000
     16      -5.0830      2.00000
     17      -5.0830      2.00000
     18      -4.8008      2.00000
     19      -4.7467      2.00000
     20      -4.7467      2.00000
     21      -4.5127      2.00000
     22      -4.5127      2.00000
     23      -4.4809      2.00000
     24      -4.3357      2.00000
     25      -4.3357      2.00000
     26      -4.3197      2.00000
     27      -4.1903      2.00000
     28      -4.0262      2.00000
     29      -3.9291      2.00000
     30      -3.9291      2.00000
     31      -3.7768      2.00000
     32      -3.7323      2.00000
     33      -3.7323      2.00000
     34      -3.5965      2.00000
     35      -3.5297      2.00000
     36      -3.3339      2.00000
     37      -3.3324      2.00000
     38      -3.0949      2.00000
     39      -3.0949      2.00000
     40      -2.9686      2.00000
     41      -2.9686      2.00000
     42      -2.9365      2.00000
     43      -2.9041      2.00000
     44      -2.9006      2.00000
     45      -2.9006      2.00000
     46      -2.8768      2.00000
     47      -2.8563      2.00000
     48      -2.7322      2.00000
     49      -2.7322      2.00000
     50      -2.7048      2.00000
     51      -2.6294      2.00000
     52      -2.5152      2.00000
     53      -2.4696      2.00000
     54      -2.1978      2.00000
     55      -2.1978      2.00000
     56      -2.1848      2.00000
     57      -2.1115      2.00000
     58      -2.0038      2.00000
     59      -1.9208      2.00000
     60      -1.7321      2.00000
     61      -1.7221      2.00000
     62      -1.5739      2.00000
     63      -1.5355      2.00000
     64      -1.5355      2.00000
     65      -1.4059      2.00000
     66      -1.4059      2.00000
     67      -1.3349      2.00000
     68      -1.3334      2.00000
     69      -1.1546      2.00000
     70      -1.1533      2.00000
     71      -1.1533      2.00000
     72      -1.1219      2.00000
     73      -1.0394      2.00000
     74      -0.8961      2.00000
     75      -0.5102      2.00342
     76      -0.5007      2.00417
     77      -0.3525      2.04411
     78      -0.3525      2.04411
     79       0.0132      0.65900
     80       0.0291      0.53746
     81       0.0318      0.51749
     82       0.0318      0.51749
     83       0.0346      0.49730
     84       0.2982     -0.04323
     85       0.2982     -0.04323
     86       0.4557     -0.00330
     87       2.0155      0.00000
     88       2.0815      0.00000
     89       2.0815      0.00000
     90       2.5835      0.00000
     91       2.5835      0.00000
     92       2.6414      0.00000
     93       3.6917      0.00000
     94       3.6917      0.00000
     95       4.1278      0.00000
     96       5.2219      0.00000

 k-point  20 :      -0.4375    0.4375    0.0000
  band No.  band energies     occupation 
      1      -7.5661      2.00000
      2      -7.5661      2.00000
      3      -6.5462      2.00000
      4      -6.5462      2.00000
      5      -6.0941      2.00000
      6      -5.7805      2.00000
      7      -5.7510      2.00000
      8      -5.7510      2.00000
      9      -5.6170      2.00000
     10      -5.5320      2.00000
     11      -5.4160      2.00000
     12      -5.4160      2.00000
     13      -5.3927      2.00000
     14      -5.1878      2.00000
     15      -4.9904      2.00000
     16      -4.9904      2.00000
     17      -4.9849      2.00000
     18      -4.8864      2.00000
     19      -4.8224      2.00000
     20      -4.6939      2.00000
     21      -4.4992      2.00000
     22      -4.4983      2.00000
     23      -4.4357      2.00000
     24      -4.4357      2.00000
     25      -4.3996      2.00000
     26      -4.2929      2.00000
     27      -4.2857      2.00000
     28      -4.2857      2.00000
     29      -3.9628      2.00000
     30      -3.8609      2.00000
     31      -3.7904      2.00000
     32      -3.7282      2.00000
     33      -3.7282      2.00000
     34      -3.6847      2.00000
     35      -3.5566      2.00000
     36      -3.5566      2.00000
     37      -3.4119      2.00000
     38      -3.3240      2.00000
     39      -3.3168      2.00000
     40      -3.3168      2.00000
     41      -3.0779      2.00000
     42      -3.0161      2.00000
     43      -3.0161      2.00000
     44      -2.9352      2.00000
     45      -2.9062      2.00000
     46      -2.8961      2.00000
     47      -2.8961      2.00000
     48      -2.8819      2.00000
     49      -2.8480      2.00000
     50      -2.7543      2.00000
     51      -2.5647      2.00000
     52      -2.5647      2.00000
     53      -2.2629      2.00000
     54      -2.1871      2.00000
     55      -2.1591      2.00000
     56      -2.1591      2.00000
     57      -2.0631      2.00000
     58      -2.0631      2.00000
     59      -1.8529      2.00000
     60      -1.8529      2.00000
     61      -1.6544      2.00000
     62      -1.6001      2.00000
     63      -1.5593      2.00000
     64      -1.4655      2.00000
     65      -1.4655      2.00000
     66      -1.3673      2.00000
     67      -1.2692      2.00000
     68      -1.2692      2.00000
     69      -1.2271      2.00000
     70      -1.1129      2.00000
     71      -1.1129      2.00000
     72      -0.9455      2.00000
     73      -0.9310      2.00000
     74      -0.9310      2.00000
     75      -0.5594      2.00112
     76      -0.5594      2.00112
     77      -0.4353      2.01420
     78      -0.3346      2.05234
     79      -0.1196      1.69218
     80      -0.1196      1.69218
     81      -0.1038      1.59299
     82      -0.0230      0.95701
     83       0.1429     -0.00565
     84       0.1780     -0.05598
     85       0.3857     -0.01273
     86       0.3857     -0.01273
     87       1.0455      0.00000
     88       1.2847      0.00000
     89       2.3041      0.00000
     90       2.4159      0.00000
     91       2.4159      0.00000
     92       3.1806      0.00000
     93       4.0044      0.00000
     94       4.2826      0.00000
     95       4.8260      0.00000
     96       4.8260      0.00000


--------------------------------------------------------------------------------------------------------


 soft charge-density along one line, spin component           1
         0         1         2         3         4         5         6         7         8         9
 total charge-density along one line
 
 pseudopotential strength for first ion, spin component:           1
 -6.626   0.000   0.000   0.000   0.000   0.000  -0.012   0.000   0.000   0.000  -6.725   0.000   0.000   0.000   0.000   0.000
  0.000   0.000  -6.513   0.000   0.000   0.000   0.000   0.000  -0.012   0.000   0.000   0.000  -6.615   0.000   0.000   0.000
  0.000   0.000   0.000   0.000  -6.504   0.000   0.000   0.000   0.000   0.000   0.000   0.000   0.000   0.000  -6.606   0.000
 -0.012   0.000   0.000   0.000   0.000   0.000  -6.513   0.000   0.000   0.000  -0.012   0.000   0.000   0.000   0.000   0.000
  0.000   0.000  -0.012   0.000   0.000   0.000   0.000   0.000  -6.626   0.000   0.000   0.000  -0.012   0.000   0.000   0.000
 -6.725   0.000   0.000   0.000   0.000   0.000  -0.012   0.000   0.000   0.000  -6.807   0.000   0.000   0.000   0.000   0.000
  0.000   0.000  -6.615   0.000   0.000   0.000   0.000   0.000  -0.012   0.000   0.000   0.000  -6.700   0.000   0.000   0.000
  0.000   0.000   0.000   0.000  -6.606   0.000   0.000   0.000   0.000   0.000   0.000   0.000   0.000   0.000  -6.692   0.000
 -0.012   0.000   0.000   0.000   0.000   0.000  -6.615   0.000   0.000   0.000  -0.012   0.000   0.000   0.000   0.000   0.000
  0.000   0.000  -0.012   0.000   0.000   0.000   0.000   0.000  -6.725   0.000   0.000   0.000  -0.012   0.000   0.000   0.000
  0.000   0.000   0.000   0.000  -0.035   0.000   0.000   0.000   0.000   0.000   0.000   0.000   0.000   0.000  -0.035   0.000
  0.000   0.000   0.000   0.000  -0.052   0.000   0.000   0.000   0.000   0.000   0.000   0.000   0.000   0.000  -0.051   0.000
  0.000   0.000  -0.001   0.000   0.000   0.000   0.000   0.000   0.001   0.000   0.000   0.000  -0.001   0.000   0.000   0.000
  0.000   0.000   0.000   0.000  -0.005   0.000   0.000   0.000   0.000   0.000   0.000   0.000   0.000   0.000  -0.005   0.000
  0.001   0.000   0.000   0.000   0.000   0.000  -0.001   0.000   0.000   0.000   0.001   0.000   0.000   0.000   0.000   0.000
  0.000   0.000   0.001   0.000   0.000   0.000   0.000   0.000   0.001   0.000   0.000   0.000   0.001   0.000   0.000   0.000
  0.000   0.000   0.000   0.000  -0.004   0.000   0.000   0.000   0.000   0.000   0.000   0.000   0.000   0.000  -0.004   0.000
  0.001   0.000   0.000   0.000   0.000   0.000   0.001   0.000   0.000   0.000   0.001   0.000   0.000   0.000   0.000   0.000
 total augmentation occupancy for first ion, spin component:           1
  3.244   0.000   0.000  -0.246   0.000  -2.204   0.000   0.000   0.053   0.000   0.000   0.000   0.000   0.000  -0.054   0.000
  0.000   4.074   0.000   0.000  -0.246   0.000  -2.299   0.000   0.000   0.062   0.000   0.000  -0.284   0.000   0.000   0.017
  0.000   0.000   4.442   0.000   0.000   0.000   0.000  -2.868   0.000   0.000   0.829  -0.135   0.000  -0.349   0.000   0.000
 -0.246   0.000   0.000   4.074   0.000   0.062   0.000   0.000  -2.299   0.000   0.000   0.000   0.000   0.000  -0.284   0.000
  0.000  -0.246   0.000   0.000   3.244   0.000   0.053   0.000   0.000  -2.204   0.000   0.000  -0.054   0.000   0.000   0.003
 -2.204   0.000   0.000   0.062   0.000   2.799   0.000   0.000   0.077   0.000   0.000   0.000   0.000   0.000   0.053   0.000
  0.000  -2.299   0.000   0.000   0.053   0.000   2.350   0.000   0.000   0.077   0.000   0.000   0.270   0.000   0.000  -0.018
  0.000   0.000  -2.868   0.000   0.000   0.000   0.000   3.071   0.000   0.000  -0.714   0.092   0.000   0.402   0.000   0.000
  0.053   0.000   0.000  -2.299   0.000   0.077   0.000   0.000   2.350   0.000   0.000   0.000   0.000   0.000   0.270   0.000
  0.000   0.062   0.000   0.000  -2.204   0.000   0.077   0.000   0.000   2.799   0.000   0.000   0.053   0.000   0.000  -0.003
  0.000   0.000   0.829   0.000   0.000   0.000   0.000  -0.714   0.000   0.000   2.347  -0.481   0.000   0.199   0.000   0.000
  0.000   0.000  -0.135   0.000   0.000   0.000   0.000   0.092   0.000   0.000  -0.481   0.122   0.000  -0.071   0.000   0.000
  0.000  -0.284   0.000   0.000  -0.054   0.000   0.270   0.000   0.000   0.053   0.000   0.000   0.281   0.000   0.000  -0.015
  0.000   0.000  -0.349   0.000   0.000   0.000   0.000   0.402   0.000   0.000   0.199  -0.071   0.000   0.160   0.000   0.000
 -0.054   0.000   0.000  -0.284   0.000   0.053   0.000   0.000   0.270   0.000   0.000   0.000   0.000   0.000   0.281   0.000
  0.000   0.017   0.000   0.000   0.003   0.000  -0.018   0.000   0.000  -0.003   0.000   0.000  -0.015   0.000   0.000   0.001
  0.000   0.000   0.009   0.000   0.000   0.000   0.000  -0.021   0.000   0.000  -0.017   0.006   0.000  -0.009   0.000   0.000
  0.003   0.000   0.000   0.017   0.000  -0.003   0.000   0.000  -0.018   0.000   0.000   0.000   0.000   0.000  -0.015   0.000


------------------------ aborting loop because EDIFF is reached ----------------------------------------


    CHARGE:  cpu time    0.76: real time    0.78
    FORLOC:  cpu time    0.01: real time    0.01
    FORNL :  cpu time    3.56: real time    3.62
    STRESS:  cpu time    7.96: real time    8.09
    FORCOR:  cpu time    0.08: real time    0.08
    FORHAR:  cpu time    0.03: real time    0.03
    MIXING:  cpu time    0.00: real time    0.00

  FORCE on cell =-STRESS in cart. coord.  units (eV):
  Direction    XX          YY          ZZ          XY          YZ          ZX
  --------------------------------------------------------------------------------------
  Alpha Z   341.29524   341.29524   341.29524
  Ewald   81942.26743 81942.26743-90854.17430     0.00000     0.00000     0.00000
  Hartree 84388.29440 84388.29440-83704.69788     0.00000     0.00000     0.00000
  E(xc)    -708.59622  -708.59623  -713.63428     0.00000     0.00000     0.00000
  Local  ************************171627.81723     0.00103     0.00000    -0.00001
  n-local   119.74602    43.87734    63.01217   -21.44331    -4.87315     2.60016
  augment   830.89030   830.89122   862.61719    -0.00080     0.00000     0.00001
  Kinetic  2313.82577  2289.30954  2380.62048    -6.12370    -6.42307     4.39206
  Fock        0.00000     0.00000     0.00000     0.00000     0.00000     0.00000
  -------------------------------------------------------------------------------------
  Total      -9.58638    -9.58638     2.85585     0.00000     0.00000     0.00000
  in kB     -21.54099   -21.54099     6.41721     0.00000     0.00000     0.00000
  external pressure =      -12.22 kB  Pullay stress =        0.00 kB


 VOLUME and BASIS-vectors are now :
 -----------------------------------------------------------------------------
  energy-cutoff  :      350.00
  volume of cell :      713.02
      direct lattice vectors                 reciprocal lattice vectors
     5.543717165  0.000000000  0.000000000     0.180384383 -0.104144972  0.000000000
     2.771858582  4.800999896  0.000000000     0.000000000  0.208289944  0.000000000
     0.000000000  0.000000000 26.789639166     0.000000000  0.000000000  0.037327864

  length of vectors
     5.543717165  5.543717165 26.789639166     0.208289944  0.208289944  0.037327864


 FORCES acting on ions
    electron-ion (+dipol)            ewald-force                    non-local-force                 convergence-correction
 -----------------------------------------------------------------------------------------------
   0.859E-07 0.496E-07 0.267E+04   -.108E-11 -.671E-12 -.267E+04   0.651E-18 -.217E-18 -.121E+01   -.254E-08 -.147E-08 -.173E+00
   0.859E-07 0.496E-07 0.267E+04   -.106E-11 -.670E-12 -.267E+04   0.195E-17 0.651E-18 -.121E+01   -.254E-08 -.147E-08 -.173E+00
   0.859E-07 0.496E-07 0.267E+04   -.110E-11 -.681E-12 -.267E+04   0.542E-18 0.108E-17 -.121E+01   -.254E-08 -.147E-08 -.173E+00
   0.859E-07 0.496E-07 0.267E+04   -.108E-11 -.681E-12 -.267E+04   -.867E-18 -.217E-18 -.121E+01   -.254E-08 -.147E-08 -.173E+00
   0.684E-06 0.395E-06 0.886E+03   0.302E-11 0.185E-11 -.885E+03   0.537E-17 -.542E-18 0.145E+00   0.394E-08 0.227E-08 -.251E+00
   0.684E-06 0.395E-06 0.886E+03   0.304E-11 0.185E-11 -.885E+03   0.515E-18 -.222E-17 0.145E+00   0.394E-08 0.227E-08 -.251E+00
   0.684E-06 0.395E-06 0.886E+03   0.300E-11 0.185E-11 -.885E+03   0.146E-17 -.136E-17 0.145E+00   0.394E-08 0.227E-08 -.251E+00
   0.684E-06 0.395E-06 0.886E+03   0.302E-11 0.185E-11 -.885E+03   0.241E-17 -.130E-17 0.145E+00   0.394E-08 0.227E-08 -.251E+00
   -.833E-06 -.481E-06 -.898E+03   -.290E-11 -.176E-11 0.898E+03   -.705E-18 -.542E-18 0.331E+00   0.200E-08 0.116E-08 -.382E+00
   -.833E-06 -.481E-06 -.898E+03   -.288E-11 -.176E-11 0.898E+03   0.103E-17 -.184E-17 0.331E+00   0.200E-08 0.116E-08 -.382E+00
   -.833E-06 -.481E-06 -.898E+03   -.292E-11 -.177E-11 0.898E+03   -.141E-17 0.141E-17 0.331E+00   0.200E-08 0.116E-08 -.382E+00
   -.833E-06 -.481E-06 -.898E+03   -.289E-11 -.177E-11 0.898E+03   -.596E-18 0.759E-18 0.331E+00   0.200E-08 0.116E-08 -.382E+00
   -.288E-07 -.166E-07 -.266E+04   0.949E-12 0.579E-12 0.266E+04   -.542E-18 0.000E+00 0.869E+00   -.477E-08 -.276E-08 -.130E+00
   -.288E-07 -.166E-07 -.266E+04   0.973E-12 0.578E-12 0.266E+04   -.542E-18 -.217E-18 0.869E+00   -.477E-08 -.276E-08 -.130E+00
   -.288E-07 -.166E-07 -.266E+04   0.930E-12 0.566E-12 0.266E+04   -.108E-18 -.217E-18 0.869E+00   -.477E-08 -.276E-08 -.130E+00
   -.288E-07 -.166E-07 -.266E+04   0.954E-12 0.569E-12 0.266E+04   0.325E-18 -.434E-18 0.869E+00   -.477E-08 -.276E-08 -.130E+00
 -----------------------------------------------------------------------------------------------
   -.368E-06 -.212E-06 0.318E+01   -.273E-13 -.543E-13 -.455E-12   0.949E-17 -.520E-17 0.547E+00   -.549E-08 -.317E-08 -.375E+01
 
 
 POSITION                                       TOTAL-FORCE (eV/Angst)
 -----------------------------------------------------------------------------------
      0.00000      0.00000     10.00000         0.000000      0.000000     -0.457434
      2.77186      0.00000     10.00000         0.000000      0.000000     -0.457434
      1.38593      2.40050     10.00000         0.000000      0.000000     -0.457434
      4.15779      2.40050     10.00000         0.000000      0.000000     -0.457434
      1.38593      0.80017     12.26321         0.000000      0.000000      0.465547
      4.15779      0.80017     12.26321         0.000000      0.000000      0.465547
      2.77186      3.20067     12.26321         0.000000      0.000000      0.465547
      5.54372      3.20067     12.26321         0.000000      0.000000      0.465547
      5.54372      1.60033     14.57004         0.000000      0.000000     -0.006088
      2.77186      1.60033     14.57004         0.000000      0.000000     -0.006088
      6.92965      4.00083     14.57004         0.000000      0.000000     -0.006088
      4.15779      4.00083     14.57004         0.000000      0.000000     -0.006088
      0.00000      0.00000     16.90495         0.000000      0.000000     -0.002026
      2.77186      0.00000     16.90495         0.000000      0.000000     -0.002026
      1.38593      2.40050     16.90495         0.000000      0.000000     -0.002026
      4.15779      2.40050     16.90495         0.000000      0.000000     -0.002026
 -----------------------------------------------------------------------------------
    total drift:                                0.000000      0.000000     -0.020355


--------------------------------------------------------------------------------------------------------



  FREE ENERGIE OF THE ION-ELECTRON SYSTEM (eV)
  ---------------------------------------------------
  free  energy   TOTEN  =       -92.85090477 eV

  energy  without entropy=      -92.82003990  energy(sigma->0) =      -92.84061648
 
 d Force = 0.5088827E-03[ 0.878E-05, 0.101E-02]  d Energy = 0.4597389E-03 0.491E-04
 d Force =-0.4708955E+02[-0.471E+02,-0.471E+02]  d Ewald  =-0.4708956E+02 0.435E-05


--------------------------------------------------------------------------------------------------------


    POTLOK:  cpu time    0.09: real time    0.09


--------------------------------------------------------------------------------------------------------




--------------------------------------------------------------------------------------------------------


  
 reached required accuracy - stopping structural energy minimisation
 writing wavefunctions
     LOOP+:  cpu time  123.94: real time  127.75
    4ORBIT:  cpu time    0.00: real time    0.00

 total amount of memory used by VASP on root node    87925. kBytes
========================================================================

   base      :      30000. kBytes
   nonl-proj :      33567. kBytes
   fftplans  :       3494. kBytes
   grid      :       6547. kBytes
   one-center:        248. kBytes
   wavefun   :      14069. kBytes
 
  
  
 General timing and accounting informations for this job:
 ========================================================
  
                  Total CPU time used (sec):     4789.617
                            User time (sec):     4726.253
                          System time (sec):       63.363
                         Elapsed time (sec):     4994.307
  
                   Maximum memory used (kb):      166388.
                   Average memory used (kb):           0.
  
                          Minor page faults:     25733053
                          Major page faults:            0
                 Voluntary context switches:         3651
