       N       E                     dE             d eps       ncg     rms          rms(c)
DAV:   1     0.977469716251E+03    0.97747E+03   -0.56612E+04 10024   0.103E+03
DAV:   2    -0.176743562321E+02   -0.99514E+03   -0.91507E+03 12248   0.261E+02
DAV:   3    -0.947722284862E+02   -0.77098E+02   -0.69618E+02 11944   0.707E+01
DAV:   4    -0.979924325224E+02   -0.32202E+01   -0.30827E+01 13616   0.152E+01
DAV:   5    -0.980747635680E+02   -0.82331E-01   -0.81991E-01 12880   0.236E+00    0.429E+01
DAV:   6    -0.968569379121E+02    0.12178E+01   -0.21982E+01 11848   0.234E+01    0.371E+01
DAV:   7    -0.137802831300E+03   -0.40946E+02   -0.86852E+01 15552   0.734E+01    0.539E+01
DAV:   8    -0.123790263540E+03    0.14013E+02   -0.59574E+01 14088   0.457E+01    0.455E+01
DAV:   9    -0.108743897939E+03    0.15046E+02   -0.38372E+01 16576   0.435E+01    0.299E+01
DAV:  10    -0.973087545426E+02    0.11435E+02   -0.29816E+01 14016   0.316E+01    0.213E+01
DAV:  11    -0.923295484945E+02    0.49792E+01   -0.17444E+01 14448   0.196E+01    0.959E+00
DAV:  12    -0.919590894257E+02    0.37046E+00   -0.25508E+00 14032   0.787E+00    0.614E+00
DAV:  13    -0.918919462680E+02    0.67143E-01   -0.41542E-01 12920   0.334E+00    0.460E+00
DAV:  14    -0.918678616964E+02    0.24085E-01   -0.18208E-01 11224   0.261E+00    0.401E+00
DAV:  15    -0.919373655543E+02   -0.69504E-01   -0.29169E-01 12312   0.247E+00    0.390E+00
DAV:  16    -0.918297452782E+02    0.10762E+00   -0.30914E-01 12000   0.263E+00    0.158E+00
DAV:  17    -0.918034175560E+02    0.26328E-01   -0.48163E-02 13528   0.128E+00    0.620E-01
DAV:  18    -0.918015286198E+02    0.18889E-02   -0.88795E-03 12360   0.506E-01    0.489E-01
DAV:  19    -0.918007038276E+02    0.82479E-03   -0.34512E-03 12064   0.290E-01    0.387E-01
DAV:  20    -0.917994910978E+02    0.12127E-02   -0.29003E-03 12032   0.285E-01    0.284E-01
DAV:  21    -0.917989350425E+02    0.55606E-03   -0.15159E-03 11080   0.187E-01    0.116E-01
DAV:  22    -0.917989156402E+02    0.19402E-04   -0.50664E-04 12944   0.103E-01    0.128E-01
DAV:  23    -0.917987890414E+02    0.12660E-03   -0.20096E-04 12088   0.741E-02    0.511E-02
DAV:  24    -0.917987796007E+02    0.94407E-05   -0.64049E-05  8832   0.405E-02
   1 F= -.91798726E+02 E0= -.91795400E+02  d E =-.997997E-02
