       N       E                     dE             d eps       ncg     rms          rms(c)
DAV:   1     0.116472802158E+04    0.11647E+04   -0.79808E+04 24984   0.105E+03
DAV:   2    -0.495285916620E+02   -0.12143E+04   -0.11409E+04 28064   0.272E+02
DAV:   3    -0.120130095925E+03   -0.70602E+02   -0.64678E+02 27768   0.607E+01
DAV:   4    -0.122409655124E+03   -0.22796E+01   -0.22361E+01 28728   0.114E+01
DAV:   5    -0.122497205879E+03   -0.87551E-01   -0.87491E-01 29352   0.211E+00    0.310E+01
DAV:   6    -0.121389059344E+03    0.11081E+01   -0.36643E+01 27416   0.279E+01    0.276E+01
DAV:   7    -0.169746875492E+03   -0.48358E+02   -0.76141E+01 31528   0.834E+01    0.566E+01
DAV:   8    -0.130900762671E+03    0.38846E+02   -0.52685E+01 31224   0.373E+01    0.318E+01
DAV:   9    -0.127092414195E+03    0.38083E+01   -0.36288E+01 27408   0.334E+01    0.297E+01
DAV:  10    -0.117276586329E+03    0.98158E+01   -0.20738E+01 27096   0.277E+01    0.101E+01
DAV:  11    -0.117923059871E+03   -0.64647E+00   -0.14308E+01 26392   0.230E+01    0.158E+01
DAV:  12    -0.116214238063E+03    0.17088E+01   -0.61130E+00 25960   0.130E+01    0.730E+00
DAV:  13    -0.115890927055E+03    0.32331E+00   -0.21795E+00 26448   0.761E+00    0.551E+00
DAV:  14    -0.115907260619E+03   -0.16334E-01   -0.96801E-01 26384   0.449E+00    0.514E+00
DAV:  15    -0.115797596398E+03    0.10966E+00   -0.34594E-01 26520   0.320E+00    0.300E+00
DAV:  16    -0.115848036077E+03   -0.50440E-01   -0.56956E-01 26544   0.350E+00    0.391E+00
DAV:  17    -0.115742652356E+03    0.10538E+00   -0.40520E-01 26368   0.309E+00    0.109E+00
DAV:  18    -0.115736377356E+03    0.62750E-02   -0.33593E-02 25032   0.879E-01    0.681E-01
DAV:  19    -0.115736468517E+03   -0.91160E-04   -0.97291E-03 26448   0.562E-01    0.663E-01
DAV:  20    -0.115733681557E+03    0.27870E-02   -0.77542E-03 25776   0.484E-01    0.297E-01
DAV:  21    -0.115733170032E+03    0.51152E-03   -0.41028E-03 25824   0.343E-01    0.202E-01
DAV:  22    -0.115732985945E+03    0.18409E-03   -0.99884E-04 25496   0.177E-01    0.142E-01
DAV:  23    -0.115732873428E+03    0.11252E-03   -0.49814E-04 25704   0.118E-01    0.767E-02
DAV:  24    -0.115732853863E+03    0.19565E-04   -0.24799E-04 25424   0.865E-02    0.524E-02
DAV:  25    -0.115732905612E+03   -0.51749E-04   -0.10621E-04 23176   0.527E-02    0.440E-02
DAV:  26    -0.115732992059E+03   -0.86447E-04   -0.49134E-05 19728   0.392E-02    0.271E-02
DAV:  27    -0.115733149405E+03   -0.15735E-03   -0.35784E-05 17448   0.277E-02    0.200E-02
DAV:  28    -0.115733285260E+03   -0.13586E-03   -0.23270E-05 15704   0.235E-02    0.227E-02
DAV:  29    -0.115733433047E+03   -0.14779E-03   -0.19284E-05 15728   0.199E-02    0.172E-02
DAV:  30    -0.115733552882E+03   -0.11983E-03   -0.10075E-05 15592   0.142E-02    0.153E-02
DAV:  31    -0.115733630321E+03   -0.77439E-04   -0.72525E-06 15336   0.121E-02    0.893E-03
DAV:  32    -0.115733682716E+03   -0.52395E-04   -0.32101E-06 15224   0.767E-03    0.602E-03
DAV:  33    -0.115733739883E+03   -0.57167E-04   -0.33306E-06 15128   0.644E-03    0.421E-03
DAV:  34    -0.115733761795E+03   -0.21911E-04   -0.11692E-06 15776   0.421E-03    0.347E-03
DAV:  35    -0.115733776673E+03   -0.14878E-04   -0.57829E-07 14504   0.276E-03    0.229E-03
DAV:  36    -0.115733795729E+03   -0.19056E-04   -0.49471E-07 15080   0.241E-03    0.213E-03
DAV:  37    -0.115733805795E+03   -0.10067E-04   -0.28608E-07 15088   0.201E-03    0.266E-03
DAV:  38    -0.115733814575E+03   -0.87796E-05   -0.19915E-07 14952   0.142E-03
   1 F= -.11573381E+03 E0= -.11562351E+03  d E =-.330907E+00
