 vasp.5.4.4.18Apr17-6-g9f103f2a35 (build Apr 28 2017 10:53:45) complex          
  
 executed on             LinuxIFC date 2019.05.31  17:25:31
 running on   28 total cores
 distrk:  each k-point on   28 cores,    1 groups
 distr:  one band on NCORES_PER_BAND=   7 cores,    4 groups


--------------------------------------------------------------------------------------------------------


 INCAR:
 POTCAR:    PAW_PBE Ag 02Apr2005                  
 POTCAR:    PAW_PBE C 08Apr2002                   
 POTCAR:    PAW_PBE O 08Apr2002                   
 POTCAR:    PAW_PBE Pd 04Jan2005                  
 POTCAR:    PAW_PBE Rh 04Feb2005                  
 POTCAR:    PAW_PBE Ag 02Apr2005                  
   VRHFIN =Ag : s1 d10                                                          
   LEXCH  = PE                                                                  
   EATOM  =  1037.2675 eV,   76.2370 Ry                                         
                                                                                
   TITEL  = PAW_PBE Ag 02Apr2005                                                
   LULTRA =        F    use ultrasoft PP ?                                      
   IUNSCR =        1    unscreen: 0-lin 1-nonlin 2-no                           
   RPACOR =    2.000    partial core radius                                     
   POMASS =  107.868; ZVAL   =   11.000    mass and valenz                      
   RCORE  =    2.500    outmost cutoff radius                                   
   RWIGS  =    2.840; RWIGS  =    1.503    wigner-seitz radius (au A)           
   ENMAX  =  249.844; ENMIN  =  187.383 eV                                      
   ICORE  =        3    local potential                                         
   LCOR   =        T    correct aug charges                                     
   LPAW   =        T    paw PP                                                  
   EAUG   =  412.496                                                            
   DEXC   =    0.000                                                            
   RMAX   =    2.560    core radius for proj-oper                               
   RAUG   =    1.300    factor for augmentation sphere                          
   RDEP   =    2.576    radius for radial grids                                 
   RDEPT  =    2.072    core radius for aug-charge                              
                                                                                
   Atomic configuration                                                         
   12 entries                                                                   
     n  l   j            E        occ.                                          
     1  0  0.50    -25324.9161   2.0000                                         
     2  0  0.50     -3728.5341   2.0000                                         
     2  1  1.50     -3344.0404   6.0000                                         
     3  0  0.50      -683.5581   2.0000                                         
     3  1  1.50      -557.3225   6.0000                                         
     3  2  2.50      -358.3853  10.0000                                         
     4  0  0.50       -95.0341   2.0000                                         
     4  1  1.50       -58.5511   6.0000                                         
     4  2  2.50        -7.4440  10.0000                                         
     5  0  0.50        -4.4045   1.0000                                         
     5  1  0.50        -1.3606   0.0000                                         
     4  3  2.50        -1.3606   0.0000                                         
   Description                                                                  
     l       E           TYP  RCUT    TYP  RCUT                                 
     2     -7.4439781     23  2.400                                             
     2     -8.8045607     23  2.400                                             
     0     -4.4044681     23  2.400                                             
     0      1.9520038     23  2.400                                             
     1     -1.3605826     23  2.500                                             
     1     27.2116520     23  2.500                                             
     3     -4.0817478     23  2.400                                             
  local pseudopotential read in
  partial core-charges read in
  partial kinetic energy density read in
  atomic valenz-charges read in
  non local Contribution for L=           2  read in
    real space projection operators read in
  non local Contribution for L=           2  read in
    real space projection operators read in
  non local Contribution for L=           0  read in
    real space projection operators read in
  non local Contribution for L=           0  read in
    real space projection operators read in
  non local Contribution for L=           1  read in
    real space projection operators read in
  non local Contribution for L=           1  read in
    real space projection operators read in
    PAW grid and wavefunctions read in
 
   number of l-projection  operators is LMAX  =           6
   number of lm-projection operators is LMMAX =          18
 
 POTCAR:    PAW_PBE C 08Apr2002                   
   VRHFIN =C: s2p2                                                              
   LEXCH  = PE                                                                  
   EATOM  =   147.1560 eV,   10.8157 Ry                                         
                                                                                
   TITEL  = PAW_PBE C 08Apr2002                                                 
   LULTRA =        F    use ultrasoft PP ?                                      
   IUNSCR =        1    unscreen: 0-lin 1-nonlin 2-no                           
   RPACOR =    1.200    partial core radius                                     
   POMASS =   12.011; ZVAL   =    4.000    mass and valenz                      
   RCORE  =    1.500    outmost cutoff radius                                   
   RWIGS  =    1.630; RWIGS  =    0.863    wigner-seitz radius (au A)           
   ENMAX  =  400.000; ENMIN  =  300.000 eV                                      
   ICORE  =        2    local potential                                         
   LCOR   =        T    correct aug charges                                     
   LPAW   =        T    paw PP                                                  
   EAUG   =  644.873                                                            
   DEXC   =    0.000                                                            
   RMAX   =    1.529    core radius for proj-oper                               
   RAUG   =    1.300    factor for augmentation sphere                          
   RDEP   =    1.501    radius for radial grids                                 
   RDEPT  =    1.300    core radius for aug-charge                              
                                                                                
   Atomic configuration                                                         
    4 entries                                                                   
     n  l   j            E        occ.                                          
     1  0  0.50      -273.3789   2.0000                                         
     2  0  0.50       -13.7508   2.0000                                         
     2  1  0.50        -5.2854   2.0000                                         
     3  2  1.50        -5.4423   0.0000                                         
   Description                                                                  
     l       E           TYP  RCUT    TYP  RCUT                                 
     0    -13.7508458     23  1.200                                             
     0     -8.2022199     23  1.200                                             
     1     -5.2854383     23  1.500                                             
     1     34.0145650     23  1.500                                             
     2     -5.4423304      7  1.500                                             
  local pseudopotential read in
  partial core-charges read in
  partial kinetic energy density read in
  atomic valenz-charges read in
  non local Contribution for L=           0  read in
    real space projection operators read in
  non local Contribution for L=           0  read in
    real space projection operators read in
  non local Contribution for L=           1  read in
    real space projection operators read in
  non local Contribution for L=           1  read in
    real space projection operators read in
    PAW grid and wavefunctions read in
 
   number of l-projection  operators is LMAX  =           4
   number of lm-projection operators is LMMAX =           8
 
 POTCAR:    PAW_PBE O 08Apr2002                   
   VRHFIN =O: s2p4                                                              
   LEXCH  = PE                                                                  
   EATOM  =   432.3788 eV,   31.7789 Ry                                         
                                                                                
   TITEL  = PAW_PBE O 08Apr2002                                                 
   LULTRA =        F    use ultrasoft PP ?                                      
   IUNSCR =        1    unscreen: 0-lin 1-nonlin 2-no                           
   RPACOR =    1.200    partial core radius                                     
   POMASS =   16.000; ZVAL   =    6.000    mass and valenz                      
   RCORE  =    1.520    outmost cutoff radius                                   
   RWIGS  =    1.550; RWIGS  =    0.820    wigner-seitz radius (au A)           
   ENMAX  =  400.000; ENMIN  =  300.000 eV                                      
   ICORE  =        2    local potential                                         
   LCOR   =        T    correct aug charges                                     
   LPAW   =        T    paw PP                                                  
   EAUG   =  605.392                                                            
   DEXC   =    0.000                                                            
   RMAX   =    1.553    core radius for proj-oper                               
   RAUG   =    1.300    factor for augmentation sphere                          
   RDEP   =    1.550    radius for radial grids                                 
   RDEPT  =    1.329    core radius for aug-charge                              
                                                                                
   Atomic configuration                                                         
    4 entries                                                                   
     n  l   j            E        occ.                                          
     1  0  0.50      -514.6923   2.0000                                         
     2  0  0.50       -23.9615   2.0000                                         
     2  1  0.50        -9.0305   4.0000                                         
     3  2  1.50        -9.5241   0.0000                                         
   Description                                                                  
     l       E           TYP  RCUT    TYP  RCUT                                 
     0    -23.9615318     23  1.200                                             
     0     -9.5240782     23  1.200                                             
     1     -9.0304911     23  1.520                                             
     1      8.1634956     23  1.520                                             
     2     -9.5240782      7  1.500                                             
  local pseudopotential read in
  partial core-charges read in
  partial kinetic energy density read in
  kinetic energy density of atom read in
  atomic valenz-charges read in
  non local Contribution for L=           0  read in
    real space projection operators read in
  non local Contribution for L=           0  read in
    real space projection operators read in
  non local Contribution for L=           1  read in
    real space projection operators read in
  non local Contribution for L=           1  read in
    real space projection operators read in
    PAW grid and wavefunctions read in
 
   number of l-projection  operators is LMAX  =           4
   number of lm-projection operators is LMMAX =           8
 
 POTCAR:    PAW_PBE Pd 04Jan2005                  
   VRHFIN =Pd : s1 d9                                                           
   LEXCH  = PE                                                                  
   EATOM  =   809.7530 eV,   59.5152 Ry                                         
                                                                                
   TITEL  = PAW_PBE Pd 04Jan2005                                                
   LULTRA =        F    use ultrasoft PP ?                                      
   IUNSCR =        1    unscreen: 0-lin 1-nonlin 2-no                           
   RPACOR =    2.000    partial core radius                                     
   POMASS =  106.420; ZVAL   =   10.000    mass and valenz                      
   RCORE  =    2.600    outmost cutoff radius                                   
   RWIGS  =    2.710; RWIGS  =    1.434    wigner-seitz radius (au A)           
   ENMAX  =  250.925; ENMIN  =  188.194 eV                                      
   ICORE  =        3    local potential                                         
   LCOR   =        T    correct aug charges                                     
   LPAW   =        T    paw PP                                                  
   EAUG   =  416.230                                                            
   DEXC   =    0.000                                                            
   RMAX   =    2.653    core radius for proj-oper                               
   RAUG   =    1.300    factor for augmentation sphere                          
   RDEP   =    2.734    radius for radial grids                                 
   RDEPT  =    2.103    core radius for aug-charge                              
                                                                                
   Atomic configuration                                                         
   12 entries                                                                   
     n  l   j            E        occ.                                          
     1  0  0.50    -24164.6631   2.0000                                         
     2  0  0.50     -3530.9218   2.0000                                         
     2  1  1.50     -3165.6822   6.0000                                         
     3  0  0.50      -639.4577   2.0000                                         
     3  1  1.50      -519.4532   6.0000                                         
     3  2  2.50      -328.9757  10.0000                                         
     4  0  0.50       -88.7014   2.0000                                         
     4  1  1.50       -54.4540   6.0000                                         
     4  2  2.50        -6.6878   9.0000                                         
     5  0  0.50        -4.3543   1.0000                                         
     5  1  0.50        -1.3606   0.0000                                         
     4  3  2.50        -1.3606   0.0000                                         
   Description                                                                  
     l       E           TYP  RCUT    TYP  RCUT                                 
     2     -6.6878251     23  2.400                                             
     2     -8.0484077     23  2.400                                             
     0     -4.3542939     23  2.400                                             
     0      4.3406793     23  2.400                                             
     1     -4.0817478     23  2.600                                             
     1     15.8380318     23  2.600                                             
     3     -4.0817478     23  2.400                                             
  local pseudopotential read in
  partial core-charges read in
  partial kinetic energy density read in
  atomic valenz-charges read in
  non local Contribution for L=           2  read in
    real space projection operators read in
  non local Contribution for L=           2  read in
    real space projection operators read in
  non local Contribution for L=           0  read in
    real space projection operators read in
  non local Contribution for L=           0  read in
    real space projection operators read in
  non local Contribution for L=           1  read in
    real space projection operators read in
  non local Contribution for L=           1  read in
    real space projection operators read in
    PAW grid and wavefunctions read in
 
   number of l-projection  operators is LMAX  =           6
   number of lm-projection operators is LMMAX =          18
 
 POTCAR:    PAW_PBE Rh 04Feb2005                  
   VRHFIN =Rh: s1 d8                                                            
   LEXCH  = PE                                                                  
   EATOM  =   616.4198 eV,   45.3056 Ry                                         
                                                                                
   TITEL  = PAW_PBE Rh 04Feb2005                                                
   LULTRA =        F    use ultrasoft PP ?                                      
   IUNSCR =        1    unscreen: 0-lin 1-nonlin 2-no                           
   RPACOR =    2.170    partial core radius                                     
   POMASS =  102.906; ZVAL   =    9.000    mass and valenz                      
   RCORE  =    2.700    outmost cutoff radius                                   
   RWIGS  =    2.650; RWIGS  =    1.402    wigner-seitz radius (au A)           
   ENMAX  =  228.996; ENMIN  =  171.747 eV                                      
   ICORE  =        3    local potential                                         
   LCOR   =        T    correct aug charges                                     
   LPAW   =        T    paw PP                                                  
   EAUG   =  374.513                                                            
   DEXC   =    0.000                                                            
   RMAX   =    2.752    core radius for proj-oper                               
   RAUG   =    1.300    factor for augmentation sphere                          
   RDEP   =    2.703    radius for radial grids                                 
   RDEPT  =    2.174    core radius for aug-charge                              
                                                                                
   Atomic configuration                                                         
   12 entries                                                                   
     n  l   j            E        occ.                                          
     1  0  0.50    -23034.1986   2.0000                                         
     2  0  0.50     -3339.2387   2.0000                                         
     2  1  1.50     -2992.3290   6.0000                                         
     3  0  0.50      -596.7249   2.0000                                         
     3  1  1.50      -482.7183   6.0000                                         
     3  2  2.50      -300.5356  10.0000                                         
     4  0  0.50       -82.4809   2.0000                                         
     4  1  0.50       -50.4082   6.0000                                         
     4  2  2.50        -5.9408   8.0000                                         
     5  0  0.50        -4.2999   1.0000                                         
     5  1  1.50        -1.3606   0.0000                                         
     4  3  2.50        -1.3606   0.0000                                         
   Description                                                                  
     l       E           TYP  RCUT    TYP  RCUT                                 
     2     -5.9407964     23  2.500                                             
     2     -7.3013790     23  2.500                                             
     0     -4.2998518     23  2.400                                             
     0      6.0533315     23  2.400                                             
     1     -4.0817478     23  2.700                                             
     1     27.2116520     23  2.700                                             
     3     -4.0817478     23  2.500                                             
  local pseudopotential read in
  partial core-charges read in
  partial kinetic energy density read in
  atomic valenz-charges read in
  non local Contribution for L=           2  read in
    real space projection operators read in
  non local Contribution for L=           2  read in
    real space projection operators read in
  non local Contribution for L=           0  read in
    real space projection operators read in
  non local Contribution for L=           0  read in
    real space projection operators read in
  non local Contribution for L=           1  read in
    real space projection operators read in
  non local Contribution for L=           1  read in
    real space projection operators read in
    PAW grid and wavefunctions read in
 
   number of l-projection  operators is LMAX  =           6
   number of lm-projection operators is LMMAX =          18
 
 Optimization of the real space projectors (new method)

 maximal supplied QI-value         = 15.12
 optimisation between [QCUT,QGAM] = [  9.52, 19.05] = [ 25.40,101.61] Ry 
 Optimized for a Real-space Cutoff    1.43 Angstroem

   l    n(q)    QCUT    max X(q) W(low)/X(q) W(high)/X(q)  e(spline) 
   2      7     9.524    53.897    0.36E-03    0.74E-03    0.67E-07
   2      7     9.524    52.416    0.37E-03    0.76E-03    0.67E-07
   0      8     9.524   122.045    0.11E-03    0.28E-03    0.55E-07
   0      8     9.524    73.629    0.11E-03    0.27E-03    0.53E-07
   1      8     9.524    15.255    0.22E-03    0.34E-03    0.12E-06
   1      8     9.524     9.562    0.19E-03    0.28E-03    0.10E-06
 Optimization of the real space projectors (new method)

 maximal supplied QI-value         = 25.13
 optimisation between [QCUT,QGAM] = [  9.55, 19.10] = [ 25.54,102.17] Ry 
 Optimized for a Real-space Cutoff    1.39 Angstroem

   l    n(q)    QCUT    max X(q) W(low)/X(q) W(high)/X(q)  e(spline) 
   0      8     9.551   115.676    0.39E-03    0.54E-03    0.29E-06
   0      8     9.551    87.132    0.39E-03    0.54E-03    0.28E-06
   1      7     9.551     4.429    0.35E-03    0.51E-04    0.29E-06
   1      7     9.551     2.733    0.22E-03    0.42E-04    0.31E-06
 Optimization of the real space projectors (new method)

 maximal supplied QI-value         = 24.76
 optimisation between [QCUT,QGAM] = [  9.41, 19.06] = [ 24.78,101.75] Ry 
 Optimized for a Real-space Cutoff    1.48 Angstroem

   l    n(q)    QCUT    max X(q) W(low)/X(q) W(high)/X(q)  e(spline) 
   0      8     9.407    20.381    0.17E-03    0.13E-03    0.41E-06
   0      8     9.407    15.268    0.19E-03    0.15E-03    0.42E-06
   1      8     9.407     5.946    0.36E-03    0.29E-03    0.38E-06
   1      8     9.407     5.382    0.31E-03    0.24E-03    0.34E-06
 Optimization of the real space projectors (new method)

 maximal supplied QI-value         = 14.36
 optimisation between [QCUT,QGAM] = [  9.48, 19.10] = [ 25.16,102.17] Ry 
 Optimized for a Real-space Cutoff    1.52 Angstroem

   l    n(q)    QCUT    max X(q) W(low)/X(q) W(high)/X(q)  e(spline) 
   2      8     9.479    59.108    0.48E-04    0.31E-03    0.96E-07
   2      8     9.479    58.101    0.46E-04    0.32E-03    0.99E-07
   0      9     9.479   102.235    0.56E-04    0.11E-03    0.61E-07
   0      9     9.479    58.388    0.50E-04    0.10E-03    0.58E-07
   1      8     9.479    22.191    0.26E-03    0.25E-04    0.13E-06
   1      8     9.479    15.590    0.22E-03    0.23E-04    0.11E-06
 Optimization of the real space projectors (new method)

 maximal supplied QI-value         = 13.98
 optimisation between [QCUT,QGAM] = [  9.51, 19.16] = [ 25.32,102.78] Ry 
 Optimized for a Real-space Cutoff    1.57 Angstroem

   l    n(q)    QCUT    max X(q) W(low)/X(q) W(high)/X(q)  e(spline) 
   2      8     9.509    59.645    0.36E-03    0.26E-04    0.85E-07
   2      8     9.509    58.460    0.36E-03    0.26E-04    0.89E-07
   0      9     9.509    97.683    0.11E-03    0.15E-03    0.88E-07
   0      9     9.509    53.223    0.10E-03    0.14E-03    0.82E-07
   1      8     9.509    13.596    0.23E-03    0.93E-04    0.99E-07
   1      8     9.509     7.885    0.17E-03    0.72E-04    0.80E-07
  PAW_PBE Ag 02Apr2005                  :
 energy of atom  1       EATOM=-1037.2675
 kinetic energy error for atom=    0.0272 (will be added to EATOM!!)
  PAW_PBE C 08Apr2002                   :
 energy of atom  2       EATOM= -147.1560
 kinetic energy error for atom=    0.0854 (will be added to EATOM!!)
  PAW_PBE O 08Apr2002                   :
 energy of atom  3       EATOM= -432.3788
 kinetic energy error for atom=    0.3782 (will be added to EATOM!!)
  PAW_PBE Pd 04Jan2005                  :
 energy of atom  4       EATOM= -809.7530
 kinetic energy error for atom=    0.0269 (will be added to EATOM!!)
  PAW_PBE Rh 04Feb2005                  :
 energy of atom  5       EATOM= -616.4198
 kinetic energy error for atom=    0.0105 (will be added to EATOM!!)
 
 
 POSCAR: Ag  C  O Pd Rh                          
  positions in cartesian coordinates
  No initial velocities read in
 exchange correlation table for  LEXCH =        8
   RHO(1)=    0.500       N(1)  =     2000
   RHO(2)=  100.500       N(2)  =     4000
 


--------------------------------------------------------------------------------------------------------


 ion  position               nearest neighbor table
   1  0.501  1.000  0.660-   2 2.07  17 2.78  18 2.78  19 2.79  19 2.79  18 2.79  17 2.79  15 2.82
                            16 2.85  14 2.85
   2  0.167  0.167  0.704-   3 1.19  17 2.07   1 2.07  18 2.07
   3  0.167  0.167  0.745-   2 1.19
   4  0.333  0.333  0.344-   9 2.79   8 2.79  22 2.79  11 2.79   6 2.79   5 2.79   6 2.79   5 2.79
                            11 2.79
   5  0.833  0.833  0.344-   7 2.79   8 2.79  22 2.79  11 2.79   6 2.79   4 2.79  11 2.79   4 2.79
                             6 2.79
   6  0.333  0.833  0.344-   8 2.79   7 2.79   9 2.79   5 2.79   4 2.79   4 2.79  11 2.79   5 2.79
                            11 2.79
   7  0.000  0.000  0.422-   5 2.79   6 2.79  11 2.79   8 2.79  22 2.79   9 2.79  22 2.79   8 2.79
                             9 2.79  21 2.80  20 2.80  10 2.80
   8  0.500  0.000  0.422-   6 2.79   5 2.79   4 2.79   7 2.79   9 2.79   9 2.79  22 2.79   7 2.79
                            22 2.79  20 2.80  12 2.80  10 2.80
   9  0.500  0.500  0.422-   4 2.79   6 2.79  11 2.79   8 2.79  22 2.79   7 2.79   8 2.79   7 2.79
                            22 2.79  12 2.79  21 2.79  20 2.79
  10  0.167  0.167  0.501-  21 2.79  12 2.79  12 2.79  20 2.79  21 2.79  20 2.79  13 2.79  16 2.79
                            14 2.79   7 2.80   8 2.80  22 2.80
  11  0.833  0.333  0.344-  22 2.79   9 2.79   7 2.79   5 2.79   4 2.79   5 2.79   6 2.79   4 2.79
                             6 2.79
  12  0.666  0.666  0.500-  20 2.78  21 2.78  10 2.79  10 2.79  20 2.79  21 2.79   9 2.79  13 2.79
                            16 2.79   8 2.80  22 2.80  15 2.83
  13  0.834  0.333  0.579-  14 2.78  16 2.78  15 2.79  15 2.79  10 2.79  19 2.79  16 2.79  14 2.79
                            12 2.79  20 2.79  18 2.85  17 2.85
  14  0.333  0.333  0.579-  13 2.78  16 2.78  15 2.79  15 2.79  10 2.79  19 2.79  13 2.79  16 2.79
                            21 2.79  20 2.79  18 2.85   1 2.85
  15  0.833  0.833  0.580-  13 2.79  16 2.79  14 2.79  14 2.79  13 2.79  16 2.79  17 2.82   1 2.82
                            18 2.82  20 2.83  21 2.83  12 2.83
  16  0.333  0.834  0.579-  13 2.78  14 2.78  15 2.79  15 2.79  10 2.79  19 2.79  13 2.79  14 2.79
                            12 2.79  21 2.79   1 2.85  17 2.85
  17  1.000  1.000  0.660-   2 2.07   1 2.78  18 2.78  19 2.79  19 2.79   1 2.79  18 2.79  15 2.82
                            16 2.85  13 2.85
  18  1.000  0.501  0.660-   2 2.07   1 2.78  17 2.78  19 2.79  19 2.79   1 2.79  17 2.79  15 2.82
                            13 2.85  14 2.85
  19  0.500  0.500  0.657-  18 2.79   1 2.79  17 2.79  17 2.79  18 2.79   1 2.79  14 2.79  13 2.79
                            16 2.79
  20  0.666  0.167  0.500-  12 2.78  21 2.78  10 2.79  10 2.79  21 2.79  12 2.79   9 2.79  14 2.79
                            13 2.79   8 2.80   7 2.80  15 2.83
  21  0.167  0.666  0.500-  12 2.78  20 2.78  10 2.79  10 2.79  20 2.79  12 2.79   9 2.79  14 2.79
                            16 2.79  22 2.80   7 2.80  15 2.83
  22  0.000  0.500  0.422-  11 2.79   5 2.79   4 2.79   9 2.79   7 2.79   7 2.79   8 2.79   8 2.79
                             9 2.79  21 2.80  12 2.80  10 2.80
 
  LATTYP: Found a hexagonal cell.
 ALAT       =     5.5720014357
 C/A-ratio  =     5.2223676856
  
  Lattice vectors:
  
 A1 = (   2.7860007179,  -4.8254947933,   0.0000000000)
 A2 = (  -5.5720014357,   0.0000000000,   0.0000000000)
 A3 = (   0.0000000000,   0.0000000000, -29.0990402424)


Analysis of symmetry for initial positions (statically):
=====================================================================
 Subroutine PRICEL returns:
 Original cell was already a primitive cell.
 

 Routine SETGRP: Setting up the symmetry group for a 
 hexagonal supercell.


 Subroutine GETGRP returns: Found  1 space group operations
 (whereof  1 operations were pure point group operations)
 out of a pool of 24 trial point group operations.


The static configuration has the point symmetry C_1 .


Analysis of symmetry for dynamics (positions and initial velocities):
=====================================================================
 Subroutine PRICEL returns:
 Original cell was already a primitive cell.
 

 Routine SETGRP: Setting up the symmetry group for a 
 hexagonal supercell.


 Subroutine GETGRP returns: Found  1 space group operations
 (whereof  1 operations were pure point group operations)
 out of a pool of 24 trial point group operations.


The dynamic configuration has the point symmetry C_1 .


Analysis of constrained symmetry for selective dynamics:
=====================================================================
 Subroutine PRICEL returns:
 Original cell was already a primitive cell.
 

 Routine SETGRP: Setting up the symmetry group for a 
 hexagonal supercell.


 Subroutine GETGRP returns: Found  1 space group operations
 (whereof  1 operations were pure point group operations)
 out of a pool of 24 trial point group operations.


The constrained configuration has the point symmetry C_1 .


 Subroutine INISYM returns: Found  1 space group operations
 (whereof  1 operations are pure point group operations),
 and found     1 'primitive' translations

 
 
 KPOINTS: 0_0_Rh14_Ag4                            

Automatic generation of k-mesh.
Space group operators:
 irot       det(A)        alpha          n_x          n_y          n_z        tau_x        tau_y        tau_z
    1     1.000000     0.000000     1.000000     0.000000     0.000000     0.000000     0.000000     0.000000
 
 Subroutine IBZKPT returns following result:
 ===========================================
 
 Found     96 irreducible k-points:
 
 Following reciprocal coordinates:
            Coordinates               Weight
  0.062500  0.062500  0.000000     16.000000
  0.000000  0.062500  0.000000     16.000000
 -0.062500  0.000000  0.000000     16.000000
  0.187500  0.062500  0.000000     16.000000
  0.125000  0.187500  0.000000     16.000000
 -0.062500  0.125000  0.000000     16.000000
  0.125000 -0.062500  0.000000     16.000000
 -0.062500 -0.187500  0.000000     16.000000
 -0.187500 -0.125000  0.000000     16.000000
  0.312500  0.062500  0.000000     16.000000
  0.250000  0.312500  0.000000     16.000000
 -0.062500  0.250000  0.000000     16.000000
  0.250000 -0.062500  0.000000     16.000000
 -0.062500 -0.312500  0.000000     16.000000
 -0.312500 -0.250000  0.000000     16.000000
  0.437500  0.062500  0.000000     16.000000
  0.375000  0.437500  0.000000     16.000000
 -0.062500  0.375000  0.000000     16.000000
  0.375000 -0.062500  0.000000     16.000000
 -0.062500 -0.437500  0.000000     16.000000
 -0.437500 -0.375000  0.000000     16.000000
 -0.437500  0.062500  0.000000     16.000000
  0.500000 -0.437500  0.000000     16.000000
 -0.062500  0.500000  0.000000     16.000000
  0.500000 -0.062500  0.000000     16.000000
 -0.062500  0.437500  0.000000     16.000000
  0.437500  0.500000  0.000000     16.000000
 -0.312500  0.062500  0.000000     16.000000
 -0.375000 -0.312500  0.000000     16.000000
 -0.062500 -0.375000  0.000000     16.000000
 -0.375000 -0.062500  0.000000     16.000000
 -0.062500  0.312500  0.000000     16.000000
  0.312500  0.375000  0.000000     16.000000
 -0.187500  0.062500  0.000000     16.000000
 -0.250000 -0.187500  0.000000     16.000000
 -0.062500 -0.250000  0.000000     16.000000
 -0.250000 -0.062500  0.000000     16.000000
 -0.062500  0.187500  0.000000     16.000000
  0.187500  0.250000  0.000000     16.000000
 -0.062500  0.062500  0.000000     16.000000
 -0.125000 -0.062500  0.000000     16.000000
 -0.062500 -0.125000  0.000000     16.000000
  0.187500  0.187500  0.000000     16.000000
  0.000000  0.187500  0.000000     16.000000
 -0.187500  0.000000  0.000000     16.000000
  0.312500  0.187500  0.000000     16.000000
  0.125000  0.312500  0.000000     16.000000
 -0.187500  0.125000  0.000000     16.000000
  0.125000 -0.187500  0.000000     16.000000
 -0.187500 -0.312500  0.000000     16.000000
 -0.312500 -0.125000  0.000000     16.000000
  0.437500  0.187500  0.000000     16.000000
  0.250000  0.437500  0.000000     16.000000
 -0.187500  0.250000  0.000000     16.000000
  0.250000 -0.187500  0.000000     16.000000
 -0.187500 -0.437500  0.000000     16.000000
 -0.437500 -0.250000  0.000000     16.000000
 -0.437500  0.187500  0.000000     16.000000
  0.375000 -0.437500  0.000000     16.000000
 -0.187500  0.375000  0.000000     16.000000
  0.375000 -0.187500  0.000000     16.000000
 -0.187500  0.437500  0.000000     16.000000
  0.437500 -0.375000  0.000000     16.000000
 -0.312500  0.187500  0.000000     16.000000
  0.500000 -0.312500  0.000000     16.000000
 -0.187500  0.500000  0.000000     16.000000
  0.500000 -0.187500  0.000000     16.000000
 -0.187500  0.312500  0.000000     16.000000
  0.312500  0.500000  0.000000     16.000000
 -0.187500  0.187500  0.000000     16.000000
 -0.375000 -0.187500  0.000000     16.000000
 -0.187500 -0.375000  0.000000     16.000000
  0.312500  0.312500  0.000000     16.000000
  0.000000  0.312500  0.000000     16.000000
 -0.312500  0.000000  0.000000     16.000000
  0.437500  0.312500  0.000000     16.000000
  0.125000  0.437500  0.000000     16.000000
 -0.312500  0.125000  0.000000     16.000000
  0.125000 -0.312500  0.000000     16.000000
 -0.312500 -0.437500  0.000000     16.000000
 -0.437500 -0.125000  0.000000     16.000000
 -0.437500  0.312500  0.000000     16.000000
  0.250000 -0.437500  0.000000     16.000000
 -0.312500  0.250000  0.000000     16.000000
  0.250000 -0.312500  0.000000     16.000000
 -0.312500  0.437500  0.000000     16.000000
  0.437500 -0.250000  0.000000     16.000000
 -0.312500  0.312500  0.000000     16.000000
  0.375000 -0.312500  0.000000     16.000000
 -0.312500  0.375000  0.000000     16.000000
  0.437500  0.437500  0.000000     16.000000
  0.000000  0.437500  0.000000     16.000000
 -0.437500  0.000000  0.000000     16.000000
 -0.437500  0.437500  0.000000     16.000000
  0.125000 -0.437500  0.000000     16.000000
 -0.437500  0.125000  0.000000     16.000000
 
 Following cartesian coordinates:
            Coordinates               Weight
  0.011217  0.006476  0.000000     16.000000
  0.000000  0.012952  0.000000     16.000000
 -0.011217  0.006476  0.000000     16.000000
  0.033650 -0.006476  0.000000     16.000000
  0.022434  0.025904  0.000000     16.000000
 -0.011217  0.032380  0.000000     16.000000
  0.022434 -0.025904  0.000000     16.000000
 -0.011217 -0.032380  0.000000     16.000000
 -0.033650 -0.006476  0.000000     16.000000
  0.056084 -0.019428  0.000000     16.000000
  0.044867  0.038856  0.000000     16.000000
 -0.011217  0.058284  0.000000     16.000000
  0.044867 -0.038856  0.000000     16.000000
 -0.011217 -0.058284  0.000000     16.000000
 -0.056084 -0.019428  0.000000     16.000000
  0.078518 -0.032380  0.000000     16.000000
  0.067301  0.051808  0.000000     16.000000
 -0.011217  0.084188  0.000000     16.000000
  0.067301 -0.051808  0.000000     16.000000
 -0.011217 -0.084188  0.000000     16.000000
 -0.078518 -0.032380  0.000000     16.000000
 -0.078518  0.058284  0.000000     16.000000
  0.089734 -0.142472  0.000000     16.000000
 -0.011217  0.110092  0.000000     16.000000
  0.089734 -0.064760  0.000000     16.000000
 -0.011217  0.097140  0.000000     16.000000
  0.078518  0.058284  0.000000     16.000000
 -0.056084  0.045332  0.000000     16.000000
 -0.067301 -0.025904  0.000000     16.000000
 -0.011217 -0.071236  0.000000     16.000000
 -0.067301  0.025904  0.000000     16.000000
 -0.011217  0.071236  0.000000     16.000000
  0.056084  0.045332  0.000000     16.000000
 -0.033650  0.032380  0.000000     16.000000
 -0.044867 -0.012952  0.000000     16.000000
 -0.011217 -0.045332  0.000000     16.000000
 -0.044867  0.012952  0.000000     16.000000
 -0.011217  0.045332  0.000000     16.000000
  0.033650  0.032380  0.000000     16.000000
 -0.011217  0.019428  0.000000     16.000000
 -0.022434  0.000000  0.000000     16.000000
 -0.011217 -0.019428  0.000000     16.000000
  0.033650  0.019428  0.000000     16.000000
  0.000000  0.038856  0.000000     16.000000
 -0.033650  0.019428  0.000000     16.000000
  0.056084  0.006476  0.000000     16.000000
  0.022434  0.051808  0.000000     16.000000
 -0.033650  0.045332  0.000000     16.000000
  0.022434 -0.051808  0.000000     16.000000
 -0.033650 -0.045332  0.000000     16.000000
 -0.056084  0.006476  0.000000     16.000000
  0.078518 -0.006476  0.000000     16.000000
  0.044867  0.064760  0.000000     16.000000
 -0.033650  0.071236  0.000000     16.000000
  0.044867 -0.064760  0.000000     16.000000
 -0.033650 -0.071236  0.000000     16.000000
 -0.078518 -0.006476  0.000000     16.000000
 -0.078518  0.084188  0.000000     16.000000
  0.067301 -0.129520  0.000000     16.000000
 -0.033650  0.097140  0.000000     16.000000
  0.067301 -0.077712  0.000000     16.000000
 -0.033650  0.110092  0.000000     16.000000
  0.078518 -0.123044  0.000000     16.000000
 -0.056084  0.071236  0.000000     16.000000
  0.089734 -0.116568  0.000000     16.000000
 -0.033650  0.123044  0.000000     16.000000
  0.089734 -0.090664  0.000000     16.000000
 -0.033650  0.084188  0.000000     16.000000
  0.056084  0.071236  0.000000     16.000000
 -0.033650  0.058284  0.000000     16.000000
 -0.067301  0.000000  0.000000     16.000000
 -0.033650 -0.058284  0.000000     16.000000
  0.056084  0.032380  0.000000     16.000000
  0.000000  0.064760  0.000000     16.000000
 -0.056084  0.032380  0.000000     16.000000
  0.078518  0.019428  0.000000     16.000000
  0.022434  0.077712  0.000000     16.000000
 -0.056084  0.058284  0.000000     16.000000
  0.022434 -0.077712  0.000000     16.000000
 -0.056084 -0.058284  0.000000     16.000000
 -0.078518  0.019428  0.000000     16.000000
 -0.078518  0.110092  0.000000     16.000000
  0.044867 -0.116568  0.000000     16.000000
 -0.056084  0.084188  0.000000     16.000000
  0.044867 -0.090664  0.000000     16.000000
 -0.056084  0.123044  0.000000     16.000000
  0.078518 -0.097140  0.000000     16.000000
 -0.056084  0.097140  0.000000     16.000000
  0.067301 -0.103616  0.000000     16.000000
 -0.056084  0.110092  0.000000     16.000000
  0.078518  0.045332  0.000000     16.000000
  0.000000  0.090664  0.000000     16.000000
 -0.078518  0.045332  0.000000     16.000000
 -0.078518  0.135996  0.000000     16.000000
  0.022434 -0.103616  0.000000     16.000000
 -0.078518  0.071236  0.000000     16.000000
 


--------------------------------------------------------------------------------------------------------




 Dimension of arrays:
   k-points           NKPTS =     96   k-points in BZ     NKDIM =     96   number of bands    NBANDS=    128
   number of dos      NEDOS =    301   number of ions     NIONS =     22
   non local maximal  LDIM  =      6   non local SUM 2l+1 LMDIM =     18
   total plane-waves  NPLWV = 109760
   max r-space proj   IRMAX =   2305   max aug-charges    IRDMAX=   8172
   dimension x,y,z NGX =    28 NGY =   28 NGZ =  140
   dimension x,y,z NGXF=    56 NGYF=   56 NGZF=  280
   support grid    NGXF=    56 NGYF=   56 NGZF=  280
   ions per type =               1   1   1  18   1
   NGX,Y,Z   is equivalent  to a cutoff of   8.35,  8.35,  8.00 a.u.
   NGXF,Y,Z  is equivalent  to a cutoff of  16.71, 16.71, 16.00 a.u.

 SYSTEM =  0_0_Rh14_Ag4                            
 POSCAR =  Ag  C  O Pd Rh                          

 Startparameter for this run:
   NWRITE =      2    write-flag & timer
   PREC   = normal    normal or accurate (medium, high low for compatibility)
   ISTART =      0    job   : 0-new  1-cont  2-samecut
   ICHARG =      2    charge: 1-file 2-atom 10-const
   ISPIN  =      1    spin polarized calculation?
   LNONCOLLINEAR =      F non collinear calculations
   LSORBIT =      F    spin-orbit coupling
   INIWAV =      1    electr: 0-lowe 1-rand  2-diag
   LASPH  =      F    aspherical Exc in radial PAW
   METAGGA=      F    non-selfconsistent MetaGGA calc.

 Electronic Relaxation 1
   ENCUT  =  350.0 eV  25.72 Ry    5.07 a.u.   8.50  8.50 44.39*2*pi/ulx,y,z
   ENINI  =  350.0     initial cutoff
   ENAUG  =  644.9 eV  augmentation charge cutoff
   NELM   =    300;   NELMIN=  5; NELMDL= -5     # of ELM steps 
   EDIFF  = 0.1E-04   stopping-criterion for ELM
   LREAL  =      T    real-space projection
   NLSPLINE    = F    spline interpolate recip. space projectors
   LCOMPAT=      F    compatible to vasp.4.4
   GGA_COMPAT  = T    GGA compatible to vasp.4.4-vasp.4.6
   LMAXPAW     = -100 max onsite density
   LMAXMIX     =    2 max onsite mixed and CHGCAR
   VOSKOWN=      0    Vosko Wilk Nusair interpolation
   ROPT   =   -0.00050  -0.00050  -0.00050  -0.00050
   ROPT   =   -0.00050
 Ionic relaxation
   EDIFFG = 0.1E-03   stopping-criterion for IOM
   NSW    =      0    number of steps for IOM
   NBLOCK =      1;   KBLOCK =      1    inner block; outer block 
   IBRION =     -1    ionic relax: 0-MD 1-quasi-New 2-CG
   NFREE  =      0    steps in history (QN), initial steepest desc. (CG)
   ISIF   =      2    stress and relaxation
   IWAVPR =     10    prediction:  0-non 1-charg 2-wave 3-comb
   ISYM   =      2    0-nonsym 1-usesym 2-fastsym
   LCORR  =      T    Harris-Foulkes like correction to forces

   POTIM  = 0.5000    time-step for ionic-motion
   TEIN   =    0.0    initial temperature
   TEBEG  =    0.0;   TEEND  =   0.0 temperature during run
   SMASS  =  -3.00    Nose mass-parameter (am)
   estimated Nose-frequenzy (Omega)   =  0.10E-29 period in steps =****** mass=  -0.710E-27a.u.
   SCALEE = 1.0000    scale energy and forces
   NPACO  =    256;   APACO  = 16.0  distance and # of slots for P.C.
   PSTRESS=    0.0 pullay stress

  Mass of Ions in am
   POMASS = 107.87 12.01 16.00106.42102.91
  Ionic Valenz
   ZVAL   =  11.00  4.00  6.00 10.00  9.00
  Atomic Wigner-Seitz radii
   RWIGS  =  -1.00 -1.00 -1.00 -1.00 -1.00
  virtual crystal weights 
   VCA    =   1.00  1.00  1.00  1.00  1.00
   NELECT =     210.0000    total number of electrons
   NUPDOWN=      -1.0000    fix difference up-down

 DOS related values:
   EMIN   =  10.00;   EMAX   =-10.00  energy-range for DOS
   EFERMI =   0.00
   ISMEAR =     1;   SIGMA  =   0.40  broadening in eV -4-tet -1-fermi 0-gaus

 Electronic relaxation 2 (details)
   IALGO  =     38    algorithm
   LDIAG  =      T    sub-space diagonalisation (order eigenvalues)
   LSUBROT=      F    optimize rotation matrix (better conditioning)
   TURBO    =      0    0=normal 1=particle mesh
   IRESTART =      0    0=no restart 2=restart with 2 vectors
   NREBOOT  =      0    no. of reboots
   NMIN     =      0    reboot dimension
   EREF     =   0.00    reference energy to select bands
   IMIX   =      4    mixing-type and parameters
     AMIX     =   0.40;   BMIX     =  1.00
     AMIX_MAG =   1.60;   BMIX_MAG =  1.00
     AMIN     =   0.10
     WC   =   100.;   INIMIX=   1;  MIXPRE=   1;  MAXMIX= -45

 Intra band minimization:
   WEIMIN = 0.0000     energy-eigenvalue tresh-hold
   EBREAK =  0.20E-07  absolut break condition
   DEPER  =   0.30     relativ break condition  

   TIME   =   0.40     timestep for ELM

  volume/ion in A,a.u.               =      35.56       240.00
  Fermi-wavevector in a.u.,A,eV,Ry     =   1.056016  1.995582 15.172819  1.115171
  Thomas-Fermi vector in A             =   2.191236
 
 Write flags
   LWAVE        =      F    write WAVECAR
   LDOWNSAMPLE  =      F    k-point downsampling of WAVECAR
   LCHARG       =      F    write CHGCAR
   LVTOT        =      F    write LOCPOT, total local potential
   LVHAR        =      F    write LOCPOT, Hartree potential only
   LELF         =      F    write electronic localiz. function (ELF)
   LORBIT       =     11    0 simple, 1 ext, 2 COOP (PROOUT), +10 PAW based schemes


 Dipole corrections
   LMONO  =      F    monopole corrections only (constant potential shift)
   LDIPOL =      F    correct potential (dipole corrections)
   IDIPOL =      0    1-x, 2-y, 3-z, 4-all directions 
   EPSILON=  1.0000000 bulk dielectric constant

 Exchange correlation treatment:
   GGA     =    --    GGA type
   LEXCH   =     8    internal setting for exchange type
   VOSKOWN=      0    Vosko Wilk Nusair interpolation
   LHFCALC =     F    Hartree Fock is set to
   LHFONE  =     F    Hartree Fock one center treatment
   AEXX    =    0.0000 exact exchange contribution

 Linear response parameters
   LEPSILON=     F    determine dielectric tensor
   LRPA    =     F    only Hartree local field effects (RPA)
   LNABLA  =     F    use nabla operator in PAW spheres
   LVEL    =     F    velocity operator in full k-point grid
   LINTERFAST=   F  fast interpolation
   KINTER  =     0    interpolate to denser k-point grid
   CSHIFT  =0.1000    complex shift for real part using Kramers Kronig
   OMEGAMAX=  -1.0    maximum frequency
   DEG_THRESHOLD= 0.2000000E-02 threshold for treating states as degnerate
   RTIME   =   -0.100 relaxation time in fs
  (WPLASMAI=    0.000 imaginary part of plasma frequency in eV, 0.658/RTIME)
   DFIELD  = 0.0000000 0.0000000 0.0000000 field for delta impulse in time
 
 Orbital magnetization related:
   ORBITALMAG=     F  switch on orbital magnetization
   LCHIMAG   =     F  perturbation theory with respect to B field
   DQ        =  0.001000  dq finite difference perturbation B field
   LLRAUG    =     F  two centre corrections for induced B field



--------------------------------------------------------------------------------------------------------


 Static calculation
 charge density and potential will be updated during run
 non-spin polarized calculation
 Variant of blocked Davidson
 Davidson routine will perform the subspace rotation
 perform sub-space diagonalisation
    after iterative eigenvector-optimisation
 modified Broyden-mixing scheme, WC =      100.0
 initial mixing is a Kerker type mixing with AMIX =  0.4000 and BMIX =      1.0000
 Hartree-type preconditioning will be used
 using additional bands           23
 real space projection scheme for non local part
 use partial core corrections
 calculate Harris-corrections to forces 
   (improved forces if not selfconsistent)
 use gradient corrections 
 use of overlap-Matrix (Vanderbilt PP)
 Methfessel and Paxton  Order N= 1 SIGMA  =   0.40


--------------------------------------------------------------------------------------------------------


  energy-cutoff  :      350.00
  volume of cell :      782.41
      direct lattice vectors                 reciprocal lattice vectors
     5.572001436  0.000000000  0.000000000     0.179468726 -0.103616317  0.000000000
     2.786000718  4.825494793  0.000000000     0.000000000  0.207232635  0.000000000
     0.000000000  0.000000000 29.099040242     0.000000000  0.000000000  0.034365395

  length of vectors
     5.572001436  5.572001436 29.099040242     0.207232635  0.207232635  0.034365395


 
 k-points in units of 2pi/SCALE and weight: 0_0_Rh14_Ag4                            
   0.01121680  0.00647602  0.00000000       0.010
   0.00000000  0.01295204  0.00000000       0.010
  -0.01121680  0.00647602  0.00000000       0.010
   0.03365039 -0.00647602  0.00000000       0.010
   0.02243359  0.02590408  0.00000000       0.010
  -0.01121680  0.03238010  0.00000000       0.010
   0.02243359 -0.02590408  0.00000000       0.010
  -0.01121680 -0.03238010  0.00000000       0.010
  -0.03365039 -0.00647602  0.00000000       0.010
   0.05608398 -0.01942806  0.00000000       0.010
   0.04486718  0.03885612  0.00000000       0.010
  -0.01121680  0.05828418  0.00000000       0.010
   0.04486718 -0.03885612  0.00000000       0.010
  -0.01121680 -0.05828418  0.00000000       0.010
  -0.05608398 -0.01942806  0.00000000       0.010
   0.07851757 -0.03238010  0.00000000       0.010
   0.06730077  0.05180816  0.00000000       0.010
  -0.01121680  0.08418826  0.00000000       0.010
   0.06730077 -0.05180816  0.00000000       0.010
  -0.01121680 -0.08418826  0.00000000       0.010
  -0.07851757 -0.03238010  0.00000000       0.010
  -0.07851757  0.05828418  0.00000000       0.010
   0.08973436 -0.14247244  0.00000000       0.010
  -0.01121680  0.11009234  0.00000000       0.010
   0.08973436 -0.06476020  0.00000000       0.010
  -0.01121680  0.09714030  0.00000000       0.010
   0.07851757  0.05828418  0.00000000       0.010
  -0.05608398  0.04533214  0.00000000       0.010
  -0.06730077 -0.02590408  0.00000000       0.010
  -0.01121680 -0.07123622  0.00000000       0.010
  -0.06730077  0.02590408  0.00000000       0.010
  -0.01121680  0.07123622  0.00000000       0.010
   0.05608398  0.04533214  0.00000000       0.010
  -0.03365039  0.03238010  0.00000000       0.010
  -0.04486718 -0.01295204  0.00000000       0.010
  -0.01121680 -0.04533214  0.00000000       0.010
  -0.04486718  0.01295204  0.00000000       0.010
  -0.01121680  0.04533214  0.00000000       0.010
   0.03365039  0.03238010  0.00000000       0.010
  -0.01121680  0.01942806  0.00000000       0.010
  -0.02243359  0.00000000  0.00000000       0.010
  -0.01121680 -0.01942806  0.00000000       0.010
   0.03365039  0.01942806  0.00000000       0.010
   0.00000000  0.03885612  0.00000000       0.010
  -0.03365039  0.01942806  0.00000000       0.010
   0.05608398  0.00647602  0.00000000       0.010
   0.02243359  0.05180816  0.00000000       0.010
  -0.03365039  0.04533214  0.00000000       0.010
   0.02243359 -0.05180816  0.00000000       0.010
  -0.03365039 -0.04533214  0.00000000       0.010
  -0.05608398  0.00647602  0.00000000       0.010
   0.07851757 -0.00647602  0.00000000       0.010
   0.04486718  0.06476020  0.00000000       0.010
  -0.03365039  0.07123622  0.00000000       0.010
   0.04486718 -0.06476020  0.00000000       0.010
  -0.03365039 -0.07123622  0.00000000       0.010
  -0.07851757 -0.00647602  0.00000000       0.010
  -0.07851757  0.08418826  0.00000000       0.010
   0.06730077 -0.12952040  0.00000000       0.010
  -0.03365039  0.09714030  0.00000000       0.010
   0.06730077 -0.07771224  0.00000000       0.010
  -0.03365039  0.11009234  0.00000000       0.010
   0.07851757 -0.12304438  0.00000000       0.010
  -0.05608398  0.07123622  0.00000000       0.010
   0.08973436 -0.11656836  0.00000000       0.010
  -0.03365039  0.12304438  0.00000000       0.010
   0.08973436 -0.09066428  0.00000000       0.010
  -0.03365039  0.08418826  0.00000000       0.010
   0.05608398  0.07123622  0.00000000       0.010
  -0.03365039  0.05828418  0.00000000       0.010
  -0.06730077  0.00000000  0.00000000       0.010
  -0.03365039 -0.05828418  0.00000000       0.010
   0.05608398  0.03238010  0.00000000       0.010
   0.00000000  0.06476020  0.00000000       0.010
  -0.05608398  0.03238010  0.00000000       0.010
   0.07851757  0.01942806  0.00000000       0.010
   0.02243359  0.07771224  0.00000000       0.010
  -0.05608398  0.05828418  0.00000000       0.010
   0.02243359 -0.07771224  0.00000000       0.010
  -0.05608398 -0.05828418  0.00000000       0.010
  -0.07851757  0.01942806  0.00000000       0.010
  -0.07851757  0.11009234  0.00000000       0.010
   0.04486718 -0.11656836  0.00000000       0.010
  -0.05608398  0.08418826  0.00000000       0.010
   0.04486718 -0.09066428  0.00000000       0.010
  -0.05608398  0.12304438  0.00000000       0.010
   0.07851757 -0.09714030  0.00000000       0.010
  -0.05608398  0.09714030  0.00000000       0.010
   0.06730077 -0.10361632  0.00000000       0.010
  -0.05608398  0.11009234  0.00000000       0.010
   0.07851757  0.04533214  0.00000000       0.010
   0.00000000  0.09066428  0.00000000       0.010
  -0.07851757  0.04533214  0.00000000       0.010
  -0.07851757  0.13599642  0.00000000       0.010
   0.02243359 -0.10361632  0.00000000       0.010
  -0.07851757  0.07123622  0.00000000       0.010
 
 k-points in reciprocal lattice and weights: 0_0_Rh14_Ag4                            
   0.06250000  0.06250000  0.00000000       0.010
   0.00000000  0.06250000  0.00000000       0.010
  -0.06250000  0.00000000  0.00000000       0.010
   0.18750000  0.06250000  0.00000000       0.010
   0.12500000  0.18750000  0.00000000       0.010
  -0.06250000  0.12500000  0.00000000       0.010
   0.12500000 -0.06250000  0.00000000       0.010
  -0.06250000 -0.18750000  0.00000000       0.010
  -0.18750000 -0.12500000  0.00000000       0.010
   0.31250000  0.06250000  0.00000000       0.010
   0.25000000  0.31250000  0.00000000       0.010
  -0.06250000  0.25000000  0.00000000       0.010
   0.25000000 -0.06250000  0.00000000       0.010
  -0.06250000 -0.31250000  0.00000000       0.010
  -0.31250000 -0.25000000  0.00000000       0.010
   0.43750000  0.06250000  0.00000000       0.010
   0.37500000  0.43750000  0.00000000       0.010
  -0.06250000  0.37500000  0.00000000       0.010
   0.37500000 -0.06250000  0.00000000       0.010
  -0.06250000 -0.43750000  0.00000000       0.010
  -0.43750000 -0.37500000  0.00000000       0.010
  -0.43750000  0.06250000  0.00000000       0.010
   0.50000000 -0.43750000  0.00000000       0.010
  -0.06250000  0.50000000  0.00000000       0.010
   0.50000000 -0.06250000  0.00000000       0.010
  -0.06250000  0.43750000  0.00000000       0.010
   0.43750000  0.50000000  0.00000000       0.010
  -0.31250000  0.06250000  0.00000000       0.010
  -0.37500000 -0.31250000  0.00000000       0.010
  -0.06250000 -0.37500000  0.00000000       0.010
  -0.37500000 -0.06250000  0.00000000       0.010
  -0.06250000  0.31250000  0.00000000       0.010
   0.31250000  0.37500000  0.00000000       0.010
  -0.18750000  0.06250000  0.00000000       0.010
  -0.25000000 -0.18750000  0.00000000       0.010
  -0.06250000 -0.25000000  0.00000000       0.010
  -0.25000000 -0.06250000  0.00000000       0.010
  -0.06250000  0.18750000  0.00000000       0.010
   0.18750000  0.25000000  0.00000000       0.010
  -0.06250000  0.06250000  0.00000000       0.010
  -0.12500000 -0.06250000  0.00000000       0.010
  -0.06250000 -0.12500000  0.00000000       0.010
   0.18750000  0.18750000  0.00000000       0.010
   0.00000000  0.18750000  0.00000000       0.010
  -0.18750000  0.00000000  0.00000000       0.010
   0.31250000  0.18750000  0.00000000       0.010
   0.12500000  0.31250000  0.00000000       0.010
  -0.18750000  0.12500000  0.00000000       0.010
   0.12500000 -0.18750000  0.00000000       0.010
  -0.18750000 -0.31250000  0.00000000       0.010
  -0.31250000 -0.12500000  0.00000000       0.010
   0.43750000  0.18750000  0.00000000       0.010
   0.25000000  0.43750000  0.00000000       0.010
  -0.18750000  0.25000000  0.00000000       0.010
   0.25000000 -0.18750000  0.00000000       0.010
  -0.18750000 -0.43750000  0.00000000       0.010
  -0.43750000 -0.25000000  0.00000000       0.010
  -0.43750000  0.18750000  0.00000000       0.010
   0.37500000 -0.43750000  0.00000000       0.010
  -0.18750000  0.37500000  0.00000000       0.010
   0.37500000 -0.18750000  0.00000000       0.010
  -0.18750000  0.43750000  0.00000000       0.010
   0.43750000 -0.37500000  0.00000000       0.010
  -0.31250000  0.18750000  0.00000000       0.010
   0.50000000 -0.31250000  0.00000000       0.010
  -0.18750000  0.50000000  0.00000000       0.010
   0.50000000 -0.18750000  0.00000000       0.010
  -0.18750000  0.31250000  0.00000000       0.010
   0.31250000  0.50000000  0.00000000       0.010
  -0.18750000  0.18750000  0.00000000       0.010
  -0.37500000 -0.18750000  0.00000000       0.010
  -0.18750000 -0.37500000  0.00000000       0.010
   0.31250000  0.31250000  0.00000000       0.010
   0.00000000  0.31250000  0.00000000       0.010
  -0.31250000  0.00000000  0.00000000       0.010
   0.43750000  0.31250000  0.00000000       0.010
   0.12500000  0.43750000  0.00000000       0.010
  -0.31250000  0.12500000  0.00000000       0.010
   0.12500000 -0.31250000  0.00000000       0.010
  -0.31250000 -0.43750000  0.00000000       0.010
  -0.43750000 -0.12500000  0.00000000       0.010
  -0.43750000  0.31250000  0.00000000       0.010
   0.25000000 -0.43750000  0.00000000       0.010
  -0.31250000  0.25000000  0.00000000       0.010
   0.25000000 -0.31250000  0.00000000       0.010
  -0.31250000  0.43750000  0.00000000       0.010
   0.43750000 -0.25000000  0.00000000       0.010
  -0.31250000  0.31250000  0.00000000       0.010
   0.37500000 -0.31250000  0.00000000       0.010
  -0.31250000  0.37500000  0.00000000       0.010
   0.43750000  0.43750000  0.00000000       0.010
   0.00000000  0.43750000  0.00000000       0.010
  -0.43750000  0.00000000  0.00000000       0.010
  -0.43750000  0.43750000  0.00000000       0.010
   0.12500000 -0.43750000  0.00000000       0.010
  -0.43750000  0.12500000  0.00000000       0.010
 
 position of ions in fractional coordinates (direct lattice) 
   0.50072527  0.99963736  0.65980278
   0.16666667  0.16666667  0.70427414
   0.16666667  0.16666667  0.74510493
   0.33333333  0.33333333  0.34365395
   0.83333333  0.83333333  0.34365395
   0.33333333  0.83333333  0.34365395
   0.00000000  0.00000000  0.42182697
   0.50000000  0.00000000  0.42182697
   0.50000000  0.50000000  0.42182697
   0.16666667  0.16666667  0.50056673
   0.83333333  0.33333333  0.34365395
   0.66641521  0.66641521  0.50035150
   0.83380273  0.33309863  0.57885917
   0.33309863  0.33309863  0.57885917
   0.83333333  0.83333333  0.58022527
   0.33309863  0.83380273  0.57885917
   0.99963736  0.99963736  0.65980278
   0.99963736  0.50072527  0.65980278
   0.50000000  0.50000000  0.65707736
   0.66641521  0.16716958  0.50035150
   0.16716958  0.66641521  0.50035150
   0.00000000  0.50000000  0.42182697
 
 position of ions in cartesian coordinates  (Angst):
   5.57503236  4.82374489 19.19962764
   1.39300036  0.80424913 20.49370154
   1.39300036  0.80424913 21.68183826
   2.78600072  1.60849826 10.00000000
   6.96500179  4.02124566 10.00000000
   4.17900108  4.02124566 10.00000000
   0.00000000  0.00000000 12.27476006
   2.78600072  0.00000000 12.27476006
   4.17900108  2.41274740 12.27476006
   1.39300036  0.80424913 14.56601146
   5.57200144  1.60849826 10.00000000
   5.56989977  3.21578313 14.55974839
   5.57396305  1.60736573 16.84424635
   2.78403910  1.60736573 16.84424635
   6.96500179  4.02124566 16.88399842
   4.17900108  4.02351074 16.84424635
   8.35497123  4.82374489 19.19962764
   6.96500179  2.41624720 19.19962764
   4.17900108  2.41274740 19.12032066
   4.17900108  0.80667593 14.55974839
   2.78810239  3.21578313 14.55974839
   1.39300036  2.41274740 12.27476006
 


--------------------------------------------------------------------------------------------------------


 k-point  1 :   0.0625 0.0625 0.0000  plane waves:   11699
 k-point  2 :   0.0000 0.0625 0.0000  plane waves:   11699
 k-point  3 :  -0.0625 0.0000 0.0000  plane waves:   11699
 k-point  4 :   0.1875 0.0625 0.0000  plane waves:   11678
 k-point  5 :   0.1250 0.1875 0.0000  plane waves:   11678
 k-point  6 :  -0.0625 0.1250 0.0000  plane waves:   11678
 k-point  7 :   0.1250-0.0625 0.0000  plane waves:   11678
 k-point  8 :  -0.0625-0.1875 0.0000  plane waves:   11678
 k-point  9 :  -0.1875-0.1250 0.0000  plane waves:   11678
 k-point 10 :   0.3125 0.0625 0.0000  plane waves:   11644
 k-point 11 :   0.2500 0.3125 0.0000  plane waves:   11644
 k-point 12 :  -0.0625 0.2500 0.0000  plane waves:   11644
 k-point 13 :   0.2500-0.0625 0.0000  plane waves:   11644
 k-point 14 :  -0.0625-0.3125 0.0000  plane waves:   11644
 k-point 15 :  -0.3125-0.2500 0.0000  plane waves:   11644
 k-point 16 :   0.4375 0.0625 0.0000  plane waves:   11613
 k-point 17 :   0.3750 0.4375 0.0000  plane waves:   11613
 k-point 18 :  -0.0625 0.3750 0.0000  plane waves:   11613
 k-point 19 :   0.3750-0.0625 0.0000  plane waves:   11613
 k-point 20 :  -0.0625-0.4375 0.0000  plane waves:   11613
 k-point 21 :  -0.4375-0.3750 0.0000  plane waves:   11613
 k-point 22 :  -0.4375 0.0625 0.0000  plane waves:   11584
 k-point 23 :   0.5000-0.4375 0.0000  plane waves:   11584
 k-point 24 :  -0.0625 0.5000 0.0000  plane waves:   11584
 k-point 25 :   0.5000-0.0625 0.0000  plane waves:   11584
 k-point 26 :  -0.0625 0.4375 0.0000  plane waves:   11584
 k-point 27 :   0.4375 0.5000 0.0000  plane waves:   11584
 k-point 28 :  -0.3125 0.0625 0.0000  plane waves:   11633
 k-point 29 :  -0.3750-0.3125 0.0000  plane waves:   11633
 k-point 30 :  -0.0625-0.3750 0.0000  plane waves:   11633
 k-point 31 :  -0.3750-0.0625 0.0000  plane waves:   11633
 k-point 32 :  -0.0625 0.3125 0.0000  plane waves:   11633
 k-point 33 :   0.3125 0.3750 0.0000  plane waves:   11633
 k-point 34 :  -0.1875 0.0625 0.0000  plane waves:   11664
 k-point 35 :  -0.2500-0.1875 0.0000  plane waves:   11664
 k-point 36 :  -0.0625-0.2500 0.0000  plane waves:   11664
 k-point 37 :  -0.2500-0.0625 0.0000  plane waves:   11664
 k-point 38 :  -0.0625 0.1875 0.0000  plane waves:   11664
 k-point 39 :   0.1875 0.2500 0.0000  plane waves:   11664
 k-point 40 :  -0.0625 0.0625 0.0000  plane waves:   11701
 k-point 41 :  -0.1250-0.0625 0.0000  plane waves:   11701
 k-point 42 :  -0.0625-0.1250 0.0000  plane waves:   11701
 k-point 43 :   0.1875 0.1875 0.0000  plane waves:   11669
 k-point 44 :   0.0000 0.1875 0.0000  plane waves:   11669
 k-point 45 :  -0.1875 0.0000 0.0000  plane waves:   11669
 k-point 46 :   0.3125 0.1875 0.0000  plane waves:   11655
 k-point 47 :   0.1250 0.3125 0.0000  plane waves:   11655
 k-point 48 :  -0.1875 0.1250 0.0000  plane waves:   11655
 k-point 49 :   0.1250-0.1875 0.0000  plane waves:   11655
 k-point 50 :  -0.1875-0.3125 0.0000  plane waves:   11655
 k-point 51 :  -0.3125-0.1250 0.0000  plane waves:   11655
 k-point 52 :   0.4375 0.1875 0.0000  plane waves:   11637
 k-point 53 :   0.2500 0.4375 0.0000  plane waves:   11637
 k-point 54 :  -0.1875 0.2500 0.0000  plane waves:   11637
 k-point 55 :   0.2500-0.1875 0.0000  plane waves:   11637
 k-point 56 :  -0.1875-0.4375 0.0000  plane waves:   11637
 k-point 57 :  -0.4375-0.2500 0.0000  plane waves:   11637
 k-point 58 :  -0.4375 0.1875 0.0000  plane waves:   11602
 k-point 59 :   0.3750-0.4375 0.0000  plane waves:   11602
 k-point 60 :  -0.1875 0.3750 0.0000  plane waves:   11602
 k-point 61 :   0.3750-0.1875 0.0000  plane waves:   11602
 k-point 62 :  -0.1875 0.4375 0.0000  plane waves:   11602
 k-point 63 :   0.4375-0.3750 0.0000  plane waves:   11602
 k-point 64 :  -0.3125 0.1875 0.0000  plane waves:   11602
 k-point 65 :   0.5000-0.3125 0.0000  plane waves:   11602
 k-point 66 :  -0.1875 0.5000 0.0000  plane waves:   11602
 k-point 67 :   0.5000-0.1875 0.0000  plane waves:   11602
 k-point 68 :  -0.1875 0.3125 0.0000  plane waves:   11602
 k-point 69 :   0.3125 0.5000 0.0000  plane waves:   11602
 k-point 70 :  -0.1875 0.1875 0.0000  plane waves:   11673
 k-point 71 :  -0.3750-0.1875 0.0000  plane waves:   11673
 k-point 72 :  -0.1875-0.3750 0.0000  plane waves:   11673
 k-point 73 :   0.3125 0.3125 0.0000  plane waves:   11649
 k-point 74 :   0.0000 0.3125 0.0000  plane waves:   11649
 k-point 75 :  -0.3125 0.0000 0.0000  plane waves:   11649
 k-point 76 :   0.4375 0.3125 0.0000  plane waves:   11619
 k-point 77 :   0.1250 0.4375 0.0000  plane waves:   11619
 k-point 78 :  -0.3125 0.1250 0.0000  plane waves:   11619
 k-point 79 :   0.1250-0.3125 0.0000  plane waves:   11619
 k-point 80 :  -0.3125-0.4375 0.0000  plane waves:   11619
 k-point 81 :  -0.4375-0.1250 0.0000  plane waves:   11619
 k-point 82 :  -0.4375 0.3125 0.0000  plane waves:   11603
 k-point 83 :   0.2500-0.4375 0.0000  plane waves:   11603
 k-point 84 :  -0.3125 0.2500 0.0000  plane waves:   11603
 k-point 85 :   0.2500-0.3125 0.0000  plane waves:   11603
 k-point 86 :  -0.3125 0.4375 0.0000  plane waves:   11603
 k-point 87 :   0.4375-0.2500 0.0000  plane waves:   11603
 k-point 88 :  -0.3125 0.3125 0.0000  plane waves:   11606
 k-point 89 :   0.3750-0.3125 0.0000  plane waves:   11606
 k-point 90 :  -0.3125 0.3750 0.0000  plane waves:   11606
 k-point 91 :   0.4375 0.4375 0.0000  plane waves:   11610
 k-point 92 :   0.0000 0.4375 0.0000  plane waves:   11610
 k-point 93 :  -0.4375 0.0000 0.0000  plane waves:   11610
 k-point 94 :  -0.4375 0.4375 0.0000  plane waves:   11600
 k-point 95 :   0.1250-0.4375 0.0000  plane waves:   11600
 k-point 96 :  -0.4375 0.1250 0.0000  plane waves:   11600

 maximum and minimum number of plane-waves per node :      1693     1624

 maximum number of plane-waves:     11701
 maximum index in each direction: 
   IXMAX=    8   IYMAX=    8   IZMAX=   44
   IXMIN=   -8   IYMIN=   -8   IZMIN=  -44


 real space projection operators:
  total allocation   :       5805.84 KBytes
  max/ min on nodes  :        837.97        820.27


 parallel 3D FFT for wavefunctions:
    minimum data exchange during FFTs selected (reduces bandwidth)
 parallel 3D FFT for charge:
    minimum data exchange during FFTs selected (reduces bandwidth)


 total amount of memory used by VASP MPI-rank0   123525. kBytes
=======================================================================

   base      :      30000. kBytes
   nonlr-proj:       1868. kBytes
   fftplans  :       1543. kBytes
   grid      :       3152. kBytes
   one-center:         62. kBytes
   wavefun   :      86900. kBytes
 
     INWAV:  cpu time    0.0001: real time    0.0001
 Broyden mixing: mesh for mixing (old mesh)
   NGX = 17   NGY = 17   NGZ = 89
  (NGX  = 56   NGY  = 56   NGZ  =280)
  gives a total of  25721 points

 initial charge density was supplied:
 charge density of overlapping atoms calculated
 number of electron     210.0000000 magnetization 
 keeping initial charge density in first step


--------------------------------------------------------------------------------------------------------


 Maximum index for non-local projection operator          325
 Maximum index for augmentation-charges          427 (set IRDMAX)


--------------------------------------------------------------------------------------------------------


 First call to EWALD:  gamma=   0.192
 Maximum number of real-space cells 5x 5x 1
 Maximum number of reciprocal cells 2x 2x 8

    FEWALD:  cpu time    0.0018: real time    0.0017


--------------------------------------- Iteration      1(   1)  ---------------------------------------


    POTLOK:  cpu time    0.0182: real time    0.0274
    SETDIJ:  cpu time    0.0027: real time    0.0027
     EDDAV:  cpu time   20.5474: real time   20.5602
       DOS:  cpu time    0.0133: real time    0.0133
    --------------------------------------------
      LOOP:  cpu time   20.5817: real time   20.6036

 eigenvalue-minimisations  : 24984
 total energy-change (2. order) : 0.1164728E+04  (-0.7980844E+04)
 number of electron     210.0000000 magnetization 
 augmentation part      210.0000000 magnetization 

 Free energy of the ion-electron system (eV)
  ---------------------------------------------------
  alpha Z        PSCENC =       363.90125391
  Ewald energy   TEWEN  =    107024.18001043
  -Hartree energ DENC   =   -124474.68715880
  -exchange      EXHF   =         0.00000000
  -V(xc)+E(xc)   XCENC  =      -516.57015571
  PAW double counting   =     16585.88916417   -15380.20568694
  entropy T*S    EENTRO =        -0.00523728
  eigenvalues    EBANDS =       754.43472845
  atomic energy  EATOM  =     16807.79110334
  Solvation  Ediel_sol  =         0.00000000
  ---------------------------------------------------
  free energy    TOTEN  =      1164.72802158 eV

  energy without entropy =     1164.73325885  energy(sigma->0) =     1164.72976734


--------------------------------------------------------------------------------------------------------




--------------------------------------- Iteration      1(   2)  ---------------------------------------


     EDDAV:  cpu time   22.8264: real time   22.8338
       DOS:  cpu time    0.0141: real time    0.0141
    --------------------------------------------
      LOOP:  cpu time   22.8405: real time   22.8480

 eigenvalue-minimisations  : 28064
 total energy-change (2. order) :-0.1214257E+04  (-0.1140875E+04)
 number of electron     210.0000000 magnetization 
 augmentation part      210.0000000 magnetization 

 Free energy of the ion-electron system (eV)
  ---------------------------------------------------
  alpha Z        PSCENC =       363.90125391
  Ewald energy   TEWEN  =    107024.18001043
  -Hartree energ DENC   =   -124474.68715880
  -exchange      EXHF   =         0.00000000
  -V(xc)+E(xc)   XCENC  =      -516.57015571
  PAW double counting   =     16585.88916417   -15380.20568694
  entropy T*S    EENTRO =         0.02489219
  eigenvalues    EBANDS =      -459.85201426
  atomic energy  EATOM  =     16807.79110334
  Solvation  Ediel_sol  =         0.00000000
  ---------------------------------------------------
  free energy    TOTEN  =       -49.52859166 eV

  energy without entropy =      -49.55348386  energy(sigma->0) =      -49.53688906


--------------------------------------------------------------------------------------------------------




--------------------------------------- Iteration      1(   3)  ---------------------------------------


     EDDAV:  cpu time   22.6619: real time   22.6677
       DOS:  cpu time    0.0146: real time    0.0146
    --------------------------------------------
      LOOP:  cpu time   22.6765: real time   22.6824

 eigenvalue-minimisations  : 27768
 total energy-change (2. order) :-0.7060150E+02  (-0.6467788E+02)
 number of electron     210.0000000 magnetization 
 augmentation part      210.0000000 magnetization 

 Free energy of the ion-electron system (eV)
  ---------------------------------------------------
  alpha Z        PSCENC =       363.90125391
  Ewald energy   TEWEN  =    107024.18001043
  -Hartree energ DENC   =   -124474.68715880
  -exchange      EXHF   =         0.00000000
  -V(xc)+E(xc)   XCENC  =      -516.57015571
  PAW double counting   =     16585.88916417   -15380.20568694
  entropy T*S    EENTRO =        -0.26073271
  eigenvalues    EBANDS =      -530.16789362
  atomic energy  EATOM  =     16807.79110334
  Solvation  Ediel_sol  =         0.00000000
  ---------------------------------------------------
  free energy    TOTEN  =      -120.13009592 eV

  energy without entropy =     -119.86936321  energy(sigma->0) =     -120.04318502


--------------------------------------------------------------------------------------------------------




--------------------------------------- Iteration      1(   4)  ---------------------------------------


     EDDAV:  cpu time   23.1973: real time   23.2041
       DOS:  cpu time    0.0149: real time    0.0149
    --------------------------------------------
      LOOP:  cpu time   23.2122: real time   23.2190

 eigenvalue-minimisations  : 28728
 total energy-change (2. order) :-0.2279559E+01  (-0.2236121E+01)
 number of electron     210.0000000 magnetization 
 augmentation part      210.0000000 magnetization 

 Free energy of the ion-electron system (eV)
  ---------------------------------------------------
  alpha Z        PSCENC =       363.90125391
  Ewald energy   TEWEN  =    107024.18001043
  -Hartree energ DENC   =   -124474.68715880
  -exchange      EXHF   =         0.00000000
  -V(xc)+E(xc)   XCENC  =      -516.57015571
  PAW double counting   =     16585.88916417   -15380.20568694
  entropy T*S    EENTRO =        -0.26588295
  eigenvalues    EBANDS =      -532.44230258
  atomic energy  EATOM  =     16807.79110334
  Solvation  Ediel_sol  =         0.00000000
  ---------------------------------------------------
  free energy    TOTEN  =      -122.40965512 eV

  energy without entropy =     -122.14377218  energy(sigma->0) =     -122.32102747


--------------------------------------------------------------------------------------------------------




--------------------------------------- Iteration      1(   5)  ---------------------------------------


     EDDAV:  cpu time   23.5678: real time   23.5738
       DOS:  cpu time    0.0150: real time    0.0150
    CHARGE:  cpu time    0.8805: real time    0.8806
    MIXING:  cpu time    0.0011: real time    0.0011
    --------------------------------------------
      LOOP:  cpu time   24.4643: real time   24.4704

 eigenvalue-minimisations  : 29352
 total energy-change (2. order) :-0.8755076E-01  (-0.8749084E-01)
 number of electron     209.9999790 magnetization 
 augmentation part       81.4494933 magnetization 

 Broyden mixing:
  rms(total) = 0.30957E+01    rms(broyden)= 0.30951E+01
  rms(prec ) = 0.31461E+01
  weight for this iteration     100.00

 Free energy of the ion-electron system (eV)
  ---------------------------------------------------
  alpha Z        PSCENC =       363.90125391
  Ewald energy   TEWEN  =    107024.18001043
  -Hartree energ DENC   =   -124474.68715880
  -exchange      EXHF   =         0.00000000
  -V(xc)+E(xc)   XCENC  =      -516.57015571
  PAW double counting   =     16585.88916417   -15380.20568694
  entropy T*S    EENTRO =        -0.26589914
  eigenvalues    EBANDS =      -532.52983714
  atomic energy  EATOM  =     16807.79110334
  Solvation  Ediel_sol  =         0.00000000
  ---------------------------------------------------
  free energy    TOTEN  =      -122.49720588 eV

  energy without entropy =     -122.23130674  energy(sigma->0) =     -122.40857283


--------------------------------------------------------------------------------------------------------




--------------------------------------- Iteration      1(   6)  ---------------------------------------


    POTLOK:  cpu time    0.0185: real time    0.0193
    SETDIJ:  cpu time    0.0027: real time    0.0027
     EDDAV:  cpu time   22.4532: real time   22.4600
       DOS:  cpu time    0.0157: real time    0.0157
    CHARGE:  cpu time    0.8797: real time    0.8799
    MIXING:  cpu time    0.0010: real time    0.0010
    --------------------------------------------
      LOOP:  cpu time   23.3709: real time   23.3787

 eigenvalue-minimisations  : 27416
 total energy-change (2. order) : 0.1108147E+01  (-0.3664302E+01)
 number of electron     209.9999788 magnetization 
 augmentation part       85.2180090 magnetization 

 Broyden mixing:
  rms(total) = 0.27589E+01    rms(broyden)= 0.27583E+01
  rms(prec ) = 0.34759E+01
  weight for this iteration     100.00

 eigenvalues of (default mixing * dielectric matrix)
  average eigenvalue GAMMA=   0.6412
  0.6412

 Free energy of the ion-electron system (eV)
  ---------------------------------------------------
  alpha Z        PSCENC =       363.90125391
  Ewald energy   TEWEN  =    107024.18001043
  -Hartree energ DENC   =   -124357.19393368
  -exchange      EXHF   =         0.00000000
  -V(xc)+E(xc)   XCENC  =      -519.90785263
  PAW double counting   =     17819.26136712   -16638.19913182
  entropy T*S    EENTRO =        -0.11528352
  eigenvalues    EBANDS =      -621.10659250
  atomic energy  EATOM  =     16807.79110334
  Solvation  Ediel_sol  =         0.00000000
  ---------------------------------------------------
  free energy    TOTEN  =      -121.38905934 eV

  energy without entropy =     -121.27377582  energy(sigma->0) =     -121.35063150


--------------------------------------------------------------------------------------------------------




--------------------------------------- Iteration      1(   7)  ---------------------------------------


    POTLOK:  cpu time    0.0166: real time    0.0168
    SETDIJ:  cpu time    0.0027: real time    0.0027
     EDDAV:  cpu time   24.8401: real time   24.8462
       DOS:  cpu time    0.0151: real time    0.0152
    CHARGE:  cpu time    0.8849: real time    0.8849
    MIXING:  cpu time    0.0011: real time    0.0011
    --------------------------------------------
      LOOP:  cpu time   25.7605: real time   25.7669

 eigenvalue-minimisations  : 31528
 total energy-change (2. order) :-0.4835782E+02  (-0.7614058E+01)
 number of electron     209.9999779 magnetization 
 augmentation part       81.0410534 magnetization 

 Broyden mixing:
  rms(total) = 0.56573E+01    rms(broyden)= 0.56565E+01
  rms(prec ) = 0.85608E+01
  weight for this iteration     100.00

 eigenvalues of (default mixing * dielectric matrix)
  average eigenvalue GAMMA=   0.4989
  0.9071  0.0908

 Free energy of the ion-electron system (eV)
  ---------------------------------------------------
  alpha Z        PSCENC =       363.90125391
  Ewald energy   TEWEN  =    107024.18001043
  -Hartree energ DENC   =   -124360.23730306
  -exchange      EXHF   =         0.00000000
  -V(xc)+E(xc)   XCENC  =      -520.26103836
  PAW double counting   =     18169.89256143   -16993.15065483
  entropy T*S    EENTRO =        -0.00085204
  eigenvalues    EBANDS =      -661.86195634
  atomic energy  EATOM  =     16807.79110334
  Solvation  Ediel_sol  =         0.00000000
  ---------------------------------------------------
  free energy    TOTEN  =      -169.74687549 eV

  energy without entropy =     -169.74602346  energy(sigma->0) =     -169.74659148


--------------------------------------------------------------------------------------------------------




--------------------------------------- Iteration      1(   8)  ---------------------------------------


    POTLOK:  cpu time    0.0181: real time    0.0187
    SETDIJ:  cpu time    0.0027: real time    0.0027
     EDDAV:  cpu time   24.7411: real time   24.7505
       DOS:  cpu time    0.0148: real time    0.0148
    CHARGE:  cpu time    0.8817: real time    0.8819
    MIXING:  cpu time    0.0010: real time    0.0010
    --------------------------------------------
      LOOP:  cpu time   25.6594: real time   25.6696

 eigenvalue-minimisations  : 31224
 total energy-change (2. order) : 0.3884611E+02  (-0.5268451E+01)
[...]
      7      -4.5085      2.00000
      8      -4.3903      2.00000
      9      -4.2214      2.00000
     10      -4.1986      2.00000
     11      -4.1547      2.00000
     12      -4.1209      2.00000
     13      -4.0058      2.00000
     14      -3.8322      2.00000
     15      -3.7336      2.00000
     16      -3.7147      2.00000
     17      -3.6675      2.00000
     18      -3.6378      2.00000
     19      -3.6206      2.00000
     20      -3.5494      2.00000
     21      -3.4781      2.00000
     22      -3.4473      2.00000
     23      -3.3716      2.00000
     24      -3.3378      2.00000
     25      -3.3281      2.00000
     26      -3.2418      2.00000
     27      -3.2142      2.00000
     28      -3.1409      2.00000
     29      -3.1286      2.00000
     30      -3.0881      2.00000
     31      -3.0409      2.00000
     32      -3.0114      2.00000
     33      -2.9886      2.00000
     34      -2.9380      2.00000
     35      -2.8933      2.00000
     36      -2.8754      2.00000
     37      -2.8130      2.00000
     38      -2.7489      2.00000
     39      -2.7177      2.00000
     40      -2.6524      2.00000
     41      -2.6327      2.00000
     42      -2.5835      2.00000
     43      -2.5566      2.00000
     44      -2.5245      2.00000
     45      -2.3950      2.00000
     46      -2.3728      2.00000
     47      -2.3292      2.00000
     48      -2.2862      2.00000
     49      -2.2368      2.00000
     50      -2.1913      2.00000
     51      -2.0925      2.00000
     52      -2.0645      2.00000
     53      -2.0595      2.00000
     54      -2.0194      2.00000
     55      -1.9519      2.00000
     56      -1.9360      2.00000
     57      -1.8466      2.00000
     58      -1.8214      2.00000
     59      -1.7781      2.00000
     60      -1.7580      2.00000
     61      -1.7455      2.00000
     62      -1.7077      2.00000
     63      -1.6611      2.00000
     64      -1.6398      2.00000
     65      -1.5939      2.00000
     66      -1.5594      2.00000
     67      -1.5477      2.00000
     68      -1.5244      2.00000
     69      -1.4957      2.00000
     70      -1.4177      2.00000
     71      -1.3369      2.00000
     72      -1.2144      2.00000
     73      -1.1658      2.00000
     74      -1.1503      2.00000
     75      -1.1164      2.00000
     76      -1.0786      2.00000
     77      -1.0152      2.00000
     78      -0.9995      2.00000
     79      -0.9685      2.00001
     80      -0.9145      2.00001
     81      -0.8935      2.00002
     82      -0.8289      2.00005
     83      -0.8147      2.00006
     84      -0.7613      2.00014
     85      -0.7265      2.00022
     86      -0.6876      2.00038
     87      -0.6221      2.00088
     88      -0.5930      2.00125
     89      -0.5347      2.00245
     90      -0.5062      2.00334
     91      -0.4542      2.00570
     92      -0.4360      2.00681
     93      -0.3735      2.01205
     94      -0.3078      2.02050
     95      -0.2678      2.02732
     96      -0.2054      2.04024
     97      -0.1759      2.04701
     98      -0.1104      2.06149
     99      -0.0585      2.06946
    100      -0.0002      2.06909
    101       0.0612      2.04980
    102       0.2318      1.81346
    103       0.2562      1.75154
    104       0.2773      1.69185
    105       0.3478      1.45582
    106       0.3999      1.25256
    107       0.4385      1.09224
    108       0.4699      0.95977
    109       0.5754      0.53465
    110       0.6540      0.27750
    111       1.1601     -0.03289
    112       1.6698     -0.00016
    113       1.7687     -0.00004
    114       1.8268     -0.00002
    115       2.3096     -0.00000
    116       2.9555     -0.00000
    117       3.1966     -0.00000
    118       3.4949     -0.00000
    119       3.9635     -0.00000
    120       4.2519     -0.00000
    121       4.5296     -0.00000
    122       4.7812     -0.00000
    123       5.0808     -0.00000
    124       5.4505     -0.00000
    125       5.6032     -0.00000
    126       6.1418     -0.00000
    127       6.7545     -0.00000
    128       7.2475     -0.00000


--------------------------------------------------------------------------------------------------------


 soft charge-density along one line, spin component           1
         0         1         2         3         4         5         6         7         8         9
 total charge-density along one line
 
 pseudopotential strength for first ion, spin component:           1
 -8.374   0.039  -0.013  -0.031   0.001  -8.427   0.037  -0.012
  0.039  -8.361  -0.017   0.029   0.014   0.037  -8.415  -0.016
 -0.013  -0.017  -8.371   0.030   0.007  -0.012  -0.016  -8.424
 -0.031   0.029   0.030  -8.395   0.039  -0.029   0.028   0.028
  0.001   0.014   0.007   0.039  -8.373   0.001   0.013   0.007
 -8.427   0.037  -0.012  -0.029   0.001  -8.453   0.036  -0.012
  0.037  -8.415  -0.016   0.028   0.013   0.036  -8.441  -0.016
 -0.012  -0.016  -8.424   0.028   0.007  -0.012  -0.016  -8.450
 -0.029   0.028   0.028  -8.447   0.037  -0.028   0.027   0.027
  0.001   0.013   0.007   0.037  -8.426   0.001   0.013   0.007
 -0.009   0.011  -0.003  -0.019   0.005  -0.009   0.010  -0.003
 -0.014   0.017  -0.005  -0.030   0.008  -0.014   0.017  -0.005
 -0.008   0.019  -0.002  -0.001  -0.003  -0.008   0.018  -0.002
 -0.001   0.005   0.022  -0.009   0.001  -0.001   0.005   0.022
  0.005  -0.001   0.003   0.021  -0.008   0.005  -0.001   0.003
 -0.011   0.025  -0.003  -0.002  -0.005  -0.011   0.025  -0.003
 -0.002   0.007   0.030  -0.013   0.001  -0.002   0.007   0.028
  0.007  -0.002   0.005   0.027  -0.011   0.007  -0.002   0.005
 total augmentation occupancy for first ion, spin component:           1
  4.874  -0.438   0.269   0.674  -0.284  -2.885   0.565  -0.214  -0.855   0.294   0.770  -0.258   0.176   0.173  -0.195  -0.021
 -0.438   4.172  -0.267  -0.391   0.162   0.566  -2.063   0.147   0.604  -0.196  -0.728   0.218   0.010  -0.173   0.182   0.012
  0.269  -0.267   4.008   0.461  -0.154  -0.215   0.148  -1.922  -0.254   0.123   0.460  -0.064   0.004   0.205  -0.007  -0.004
  0.674  -0.391   0.461   4.632  -0.439  -0.854   0.604  -0.254  -2.767   0.566   1.265  -0.378   0.183   0.301  -0.200  -0.016
 -0.284   0.162  -0.154  -0.439   4.547   0.294  -0.198   0.123   0.565  -2.547  -0.442   0.149   0.008  -0.100   0.176  -0.000
 -2.885   0.566  -0.215  -0.854   0.294   2.833  -0.672   0.171   1.005  -0.303  -0.695   0.229  -0.169  -0.178   0.186   0.016
  0.565  -2.063   0.148   0.604  -0.198  -0.672   1.907  -0.045  -0.782   0.225   0.653  -0.187  -0.004   0.186  -0.182  -0.004
 -0.214   0.147  -1.922  -0.254   0.123   0.171  -0.045   1.797   0.077  -0.098  -0.426   0.073   0.006  -0.190  -0.010   0.001
 -0.855   0.604  -0.254  -2.767   0.565   1.005  -0.782   0.077   2.816  -0.673  -1.133   0.323  -0.182  -0.323   0.206   0.016
  0.294  -0.196   0.123   0.566  -2.547  -0.303   0.225  -0.098  -0.673   2.484   0.399  -0.132  -0.009   0.102  -0.169  -0.002
  0.770  -0.728   0.460   1.265  -0.442  -0.695   0.653  -0.426  -1.133   0.399   2.542  -0.524   0.086   0.019  -0.148  -0.011
 -0.258   0.218  -0.064  -0.378   0.149   0.229  -0.187   0.073   0.323  -0.132  -0.524   0.131  -0.038  -0.018   0.067   0.004
  0.176   0.010   0.004   0.183   0.008  -0.169  -0.004   0.006  -0.182  -0.009   0.086  -0.038   0.221   0.037  -0.031  -0.013
  0.173  -0.173   0.205   0.301  -0.100  -0.178   0.186  -0.190  -0.323   0.102   0.019  -0.018   0.037   0.180  -0.063  -0.003
 -0.195   0.182  -0.007  -0.200   0.176   0.186  -0.182  -0.010   0.206  -0.169  -0.148   0.067  -0.031  -0.063   0.257   0.004
 -0.021   0.012  -0.004  -0.016  -0.000   0.016  -0.004   0.001   0.016  -0.002  -0.011   0.004  -0.013  -0.003   0.004   0.001
 -0.015   0.016   0.003  -0.028   0.008   0.016  -0.015   0.007   0.026  -0.009  -0.003   0.003  -0.003  -0.011   0.005   0.000
  0.023  -0.015   0.006   0.030  -0.021  -0.020   0.016  -0.002  -0.023   0.016   0.018  -0.007   0.004   0.006  -0.017  -0.000


------------------------ aborting loop because EDIFF is reached ----------------------------------------


 


 total charge     
 
# of ion       s       p       d       tot
------------------------------------------
    1        0.454   0.377   9.135   9.966
    2        0.916   1.584   0.000   2.500
    3        1.667   3.529   0.000   5.197
    4        0.455   0.328   8.476   9.260
    5        0.452   0.329   8.477   9.259
    6        0.450   0.323   8.484   9.256
    7        0.469   0.447   8.436   9.353
    8        0.469   0.447   8.437   9.354
    9        0.469   0.448   8.437   9.355
   10        0.475   0.443   8.437   9.355
   11        0.456   0.328   8.476   9.260
   12        0.470   0.440   8.440   9.350
   13        0.463   0.426   8.453   9.341
   14        0.461   0.422   8.469   9.351
   15        0.463   0.417   8.478   9.358
   16        0.463   0.420   8.472   9.354
   17        0.466   0.426   8.556   9.448
   18        0.466   0.427   8.555   9.448
   19        0.435   0.308   8.560   9.304
   20        0.465   0.433   8.450   9.349
   21        0.468   0.439   8.445   9.352
   22        0.424   0.403   7.295   8.122
--------------------------------------------------
tot         11.777  13.143 168.970 193.890
 
    CHARGE:  cpu time    0.7751: real time    0.7753
    FORLOC:  cpu time    0.0044: real time    0.0044
    FORNL :  cpu time    3.1478: real time    3.1484
    STRESS:  cpu time    9.4420: real time    9.4440
    FORCOR:  cpu time    0.0207: real time    0.0207
    FORHAR:  cpu time    0.0083: real time    0.0083
    MIXING:  cpu time    0.0041: real time    0.0041
    OFIELD:  cpu time    0.0001: real time    0.0001

  FORCE on cell =-STRESS in cart. coord.  units (eV):
  Direction    XX          YY          ZZ          XY          YZ          ZX
  --------------------------------------------------------------------------------------
  Alpha Z   363.90125   363.90125   363.90125
  Ewald  118153.45048118142.85551************    -9.37242     8.75969   -15.08004
  Hartree122561.51870122554.40931************    -6.22535     6.17502   -10.60545
  E(xc)   -1086.51999 -1086.51341 -1089.57548     0.00467    -0.04121     0.07773
  Local  ************************246373.18980    14.89216   -15.10158    25.99364
  n-local  -108.46485  -108.55826  -128.93449    -0.06044    -0.05217     0.31438
  augment  1486.67410  1486.71996  1505.57158     0.05023     0.20154    -0.48591
  Kinetic  2887.04865  2887.03975  2901.30654     0.07304     0.67479    -1.36287
  Fock        0.00000     0.00000     0.00000     0.00000     0.00000     0.00000
  -------------------------------------------------------------------------------------
  Total      -9.49471   -10.25355    -5.92301    -0.63811     0.61607    -1.14852
  in kB     -19.44287   -20.99680   -12.12890    -1.30670     1.26157    -2.35189
  external pressure =      -17.52 kB  Pullay stress =        0.00 kB


 VOLUME and BASIS-vectors are now :
 -----------------------------------------------------------------------------
  energy-cutoff  :      350.00
  volume of cell :      782.41
      direct lattice vectors                 reciprocal lattice vectors
     5.572001436  0.000000000  0.000000000     0.179468726 -0.103616317  0.000000000
     2.786000718  4.825494793  0.000000000     0.000000000  0.207232635  0.000000000
     0.000000000  0.000000000 29.099040242     0.000000000  0.000000000  0.034365395

  length of vectors
     5.572001436  5.572001436 29.099040242     0.207232635  0.207232635  0.034365395


 FORCES acting on ions
    electron-ion (+dipol)            ewald-force                    non-local-force                 convergence-correction
 -----------------------------------------------------------------------------------------------
   -.951E+02 0.550E+02 -.324E+04   0.963E+02 -.556E+02 0.323E+04   -.381E+00 0.177E+00 0.107E+01   0.255E-03 -.922E-04 -.352E-02
   0.530E+01 -.306E+01 -.130E+04   -.685E+01 0.395E+01 0.129E+04   0.175E+00 -.991E-01 0.116E+02   -.299E-03 0.155E-03 -.351E-02
   0.219E+01 -.126E+01 -.228E+04   -.237E+01 0.137E+01 0.234E+04   0.383E+00 -.227E+00 -.570E+02   -.814E-04 0.389E-04 -.461E-02
   0.497E+01 -.284E+01 0.332E+04   -.519E+01 0.296E+01 -.332E+04   0.968E-01 -.529E-01 -.262E+01   0.144E-03 -.208E-03 0.329E-02
   -.804E-02 0.569E+01 0.332E+04   0.634E-03 -.596E+01 -.332E+04   0.711E-02 0.124E+00 -.263E+01   -.114E-03 0.221E-03 0.324E-02
   0.725E-02 -.296E-01 0.333E+04   -.634E-03 0.349E-01 -.332E+04   -.663E-02 -.358E-02 -.248E+01   0.113E-03 0.609E-04 0.337E-02
   -.719E-01 -.500E-01 0.178E+04   0.650E-01 0.375E-01 -.178E+04   0.365E-01 0.293E-01 -.183E-01   0.147E-03 -.135E-03 0.163E-01
   0.738E-01 -.486E-01 0.178E+04   -.650E-01 0.375E-01 -.178E+04   -.388E-01 0.198E-01 -.594E-02   -.147E-03 0.496E-04 0.161E-01
   -.648E-02 0.151E-01 0.178E+04   -.160E-04 0.925E-05 -.178E+04   0.160E-01 -.553E-02 0.312E-02   -.160E-03 0.126E-03 0.162E-01
   0.253E+00 -.579E+01 0.230E+03   -.242E+00 0.598E+01 -.230E+03   -.970E-02 -.510E-01 -.195E+00   0.151E-03 -.243E-03 0.234E-01
   -.496E+01 -.283E+01 0.332E+04   0.519E+01 0.296E+01 -.332E+04   -.981E-01 -.568E-01 -.262E+01   -.142E-03 -.749E-04 0.317E-02
   -.918E+01 0.667E+00 0.229E+03   0.935E+01 -.755E+00 -.229E+03   -.860E-02 0.530E-01 0.119E+00   -.370E-03 0.112E-03 0.231E-01
   0.802E+00 -.773E+00 -.135E+04   -.883E+00 0.814E+00 0.135E+04   0.470E-01 -.294E-01 0.362E+00   -.583E-03 0.163E-03 0.151E-01
   -.784E+00 -.603E+01 -.134E+04   0.869E+00 0.619E+01 0.134E+04   -.371E-01 -.885E-01 0.457E+00   0.579E-03 0.584E-03 0.146E-01
   -.482E+01 0.308E+01 -.137E+04   0.491E+01 -.312E+01 0.137E+04   -.598E-01 0.346E-01 -.364E+00   0.371E-03 -.487E-04 0.139E-01
   0.456E+01 0.384E+01 -.134E+04   -.466E+01 -.400E+01 0.134E+04   0.564E-01 0.821E-01 0.477E+00   -.369E-03 -.705E-03 0.148E-01
   0.878E+02 0.508E+02 -.294E+04   -.874E+02 -.506E+02 0.294E+04   -.209E+00 -.225E+00 0.470E+00   -.248E-03 -.124E-03 -.330E-02
   -.330E-01 -.101E+03 -.294E+04   0.831E-01 0.101E+03 0.294E+04   0.654E-01 0.301E+00 0.464E+00   0.208E-04 0.254E-03 -.335E-02
   0.373E-01 -.589E-01 -.298E+04   -.181E-01 0.104E-01 0.297E+04   0.115E-01 0.167E-01 0.287E+01   -.219E-04 -.358E-04 -.256E-02
   -.248E+00 0.476E+01 0.224E+03   0.240E+00 -.477E+01 -.224E+03   0.183E-02 -.594E-01 0.243E-01   -.150E-03 0.186E-03 0.230E-01
   0.915E+01 0.397E+00 0.229E+03   -.935E+01 -.478E+00 -.229E+03   0.132E-01 0.599E-01 0.212E+00   0.369E-03 -.584E-04 0.233E-01
   0.308E-02 0.100E+00 0.160E+04   0.145E-04 -.675E-01 -.160E+04   -.131E-01 -.604E-01 -.112E+00   0.140E-03 -.331E-04 0.147E-01
 -----------------------------------------------------------------------------------------------
   -.435E-01 0.584E-01 0.498E+02   0.208E-12 -.127E-13 -.523E-11   0.488E-01 -.612E-01 -.500E+02   -.396E-03 0.193E-03 0.207E+00
 
 
 POSITION                                       TOTAL-FORCE (eV/Angst)
 -----------------------------------------------------------------------------------
      5.57503      4.82374     19.19963         0.859668     -0.489879     -0.350873
      1.39300      0.80425     20.49370        -1.373311      0.791368      0.640346
      1.39300      0.80425     21.68184         0.199476     -0.116195      0.034153
      2.78600      1.60850     10.00000        -0.128701      0.073791      0.118363
      6.96500      4.02125     10.00000        -0.000630     -0.148927      0.121817
      4.17900      4.02125     10.00000        -0.000121      0.001864     -0.024597
      0.00000      0.00000     12.27476         0.029498      0.016842      0.161810
      2.78600      0.00000     12.27476        -0.030337      0.008805      0.168824
      4.17900      2.41275     12.27476         0.009113      0.009783      0.042104
      1.39300      0.80425     14.56601         0.001892      0.131971     -0.189029
      5.57200      1.60850     10.00000         0.130522      0.073849      0.122232
      5.56990      3.21578     14.55975         0.161732     -0.034899     -0.185882
      5.57396      1.60737     16.84425        -0.034426      0.011714      0.006776
      2.78404      1.60737     16.84425         0.048703      0.076515     -0.127551
      6.96500      4.02125     16.88400         0.029911     -0.009096      0.003731
      4.17900      4.02351     16.84425        -0.050125     -0.076127     -0.183614
      8.35497      4.82374     19.19963         0.206201     -0.004453     -0.007866
      6.96500      2.41625     19.19963         0.115281     -0.175597     -0.025338
      4.17900      2.41275     19.12032         0.030447     -0.031640     -0.165674
      4.17900      0.80668     14.55975        -0.006872     -0.061607     -0.004166
      2.78810      3.21578     14.55975        -0.187861     -0.020505     -0.258208
      1.39300      2.41275     12.27476        -0.010058     -0.027575      0.102644
 -----------------------------------------------------------------------------------
    total drift:                                0.004886     -0.002646      0.002980


--------------------------------------------------------------------------------------------------------



  FREE ENERGIE OF THE ION-ELECTRON SYSTEM (eV)
  ---------------------------------------------------
  free  energy   TOTEN  =      -115.73381458 eV

  energy  without entropy=     -115.40290716  energy(sigma->0) =     -115.62351210
 


--------------------------------------------------------------------------------------------------------


    POTLOK:  cpu time    0.0185: real time    0.0185


--------------------------------------------------------------------------------------------------------


     LOOP+:  cpu time  767.2067: real time  767.7565
    4ORBIT:  cpu time    0.0000: real time    0.0000
 


 total charge     
 
# of ion       s       p       d       tot
------------------------------------------
    1        0.454   0.377   9.135   9.966
    2        0.916   1.584   0.000   2.500
    3        1.667   3.529   0.000   5.197
    4        0.455   0.328   8.476   9.260
    5        0.452   0.329   8.477   9.259
    6        0.450   0.323   8.484   9.256
    7        0.469   0.447   8.436   9.353
    8        0.469   0.447   8.437   9.354
    9        0.469   0.448   8.437   9.355
   10        0.475   0.443   8.437   9.355
   11        0.456   0.328   8.476   9.260
   12        0.470   0.440   8.440   9.350
   13        0.463   0.426   8.453   9.341
   14        0.461   0.422   8.469   9.351
   15        0.463   0.417   8.478   9.358
   16        0.463   0.420   8.472   9.354
   17        0.466   0.426   8.556   9.448
   18        0.466   0.427   8.555   9.448
   19        0.435   0.308   8.560   9.304
   20        0.465   0.433   8.450   9.349
   21        0.468   0.439   8.445   9.352
   22        0.424   0.403   7.295   8.122
--------------------------------------------------
tot         11.777  13.143 168.970 193.890
 

 total amount of memory used by VASP MPI-rank0   123525. kBytes
=======================================================================

   base      :      30000. kBytes
   nonlr-proj:       1868. kBytes
   fftplans  :       1543. kBytes
   grid      :       3152. kBytes
   one-center:         62. kBytes
   wavefun   :      86900. kBytes
 
  
  
 General timing and accounting informations for this job:
 ========================================================
  
                  Total CPU time used (sec):      782.511
                            User time (sec):      777.516
                          System time (sec):        4.995
                         Elapsed time (sec):      783.457
  
                   Maximum memory used (kb):      191472.
                   Average memory used (kb):           0.
  
                          Minor page faults:       124557
                          Major page faults:            9
                 Voluntary context switches:          970
