       N       E                     dE             d eps       ncg     rms          rms(c)
DAV:   1     0.101362299496E+04    0.10136E+04   -0.58206E+04 19328   0.103E+03
DAV:   2    -0.296938558066E+02   -0.10433E+04   -0.96961E+03 23832   0.258E+02
DAV:   3    -0.121218582955E+03   -0.91525E+02   -0.84642E+02 23016   0.755E+01
DAV:   4    -0.125674259471E+03   -0.44557E+01   -0.42280E+01 25792   0.168E+01
DAV:   5    -0.125819161274E+03   -0.14490E+00   -0.14352E+00 27016   0.297E+00    0.425E+01
DAV:   6    -0.118965790130E+03    0.68534E+01   -0.29502E+01 21860   0.203E+01    0.312E+01
DAV:   7    -0.142465805994E+03   -0.23500E+02   -0.98726E+01 24620   0.554E+01    0.442E+01
DAV:   8    -0.119989690442E+03    0.22476E+02   -0.39752E+01 25648   0.323E+01    0.183E+01
DAV:   9    -0.122160587754E+03   -0.21709E+01   -0.45215E+01 22044   0.298E+01    0.237E+01
DAV:  10    -0.125532499690E+03   -0.33719E+01   -0.26846E+01 27368   0.327E+01    0.286E+01
DAV:  11    -0.118260035526E+03    0.72725E+01   -0.27018E+01 32160   0.288E+01    0.148E+01
DAV:  12    -0.116325110508E+03    0.19349E+01   -0.80180E+00 27020   0.128E+01    0.591E+00
DAV:  13    -0.116071080280E+03    0.25403E+00   -0.98946E-01 28084   0.491E+00    0.322E+00
DAV:  14    -0.116045290944E+03    0.25789E-01   -0.72387E-02 24732   0.111E+00    0.247E+00
DAV:  15    -0.116061357672E+03   -0.16067E-01   -0.18681E-01 21300   0.170E+00    0.229E+00
DAV:  16    -0.116059381455E+03    0.19762E-02   -0.10108E-01 20900   0.149E+00    0.182E+00
DAV:  17    -0.116035405861E+03    0.23976E-01   -0.46118E-02 21400   0.111E+00    0.979E-01
DAV:  18    -0.116033399810E+03    0.20061E-02   -0.41972E-02 24860   0.761E-01    0.668E-01
DAV:  19    -0.116032325757E+03    0.10741E-02   -0.52715E-03 20868   0.276E-01    0.446E-01
DAV:  20    -0.116031665387E+03    0.66037E-03   -0.50030E-03 27100   0.275E-01    0.364E-01
DAV:  21    -0.116031754705E+03   -0.89318E-04   -0.11147E-03 23372   0.138E-01    0.320E-01
DAV:  22    -0.116031529064E+03    0.22564E-03   -0.75691E-04 21620   0.108E-01    0.189E-01
DAV:  23    -0.116031453875E+03    0.75189E-04   -0.65099E-04 21880   0.101E-01    0.743E-02
DAV:  24    -0.116031533517E+03   -0.79642E-04   -0.11875E-04 21024   0.465E-02    0.429E-02
DAV:  25    -0.116031612035E+03   -0.78518E-04   -0.42022E-05 11600   0.285E-02    0.328E-02
DAV:  26    -0.116031692551E+03   -0.80515E-04   -0.28245E-05 12044   0.226E-02    0.306E-02
DAV:  27    -0.116031832099E+03   -0.13955E-03   -0.26498E-05 12868   0.219E-02    0.231E-02
DAV:  28    -0.116032038791E+03   -0.20669E-03   -0.20379E-05 12936   0.179E-02    0.273E-02
DAV:  29    -0.116032112583E+03   -0.73792E-04   -0.10631E-05 11256   0.134E-02    0.153E-02
DAV:  30    -0.116032189347E+03   -0.76764E-04   -0.73011E-06 11480   0.102E-02    0.911E-03
DAV:  31    -0.116032283872E+03   -0.94525E-04   -0.53369E-06 11612   0.885E-03    0.974E-03
DAV:  32    -0.116032341968E+03   -0.58096E-04   -0.43916E-06 11780   0.716E-03    0.113E-02
DAV:  33    -0.116032350859E+03   -0.88914E-05   -0.14537E-06 10696   0.479E-03
   1 F= -.11603201E+03 E0= -.11601847E+03  d E =-.405975E-01
