 vasp.5.4.4.18Apr17-6-g9f103f2a35 (build Apr 28 2017 10:53:45) complex          
  
 executed on             LinuxIFC date 2019.07.18  18:40:17
 running on   16 total cores
 distrk:  each k-point on   16 cores,    1 groups
 distr:  one band on NCORES_PER_BAND=   4 cores,    4 groups


--------------------------------------------------------------------------------------------------------


 INCAR:
 POTCAR:    PAW_PBE Au 04Oct2007                  
 POTCAR:    PAW_PBE C 08Apr2002                   
 POTCAR:    PAW_PBE H 15Jun2001                   
 POTCAR:    PAW_PBE Ir 06Sep2000                  
 POTCAR:    PAW_PBE Pt 04Feb2005                  
 POTCAR:    PAW_PBE Au 04Oct2007                  
   VRHFIN =Au: s1d10                                                            
   LEXCH  = PE                                                                  
   EATOM  =   926.0867 eV,   68.0654 Ry                                         
                                                                                
   TITEL  = PAW_PBE Au 04Oct2007                                                
   LULTRA =        F    use ultrasoft PP ?                                      
   IUNSCR =        1    unscreen: 0-lin 1-nonlin 2-no                           
   RPACOR =    2.330    partial core radius                                     
   POMASS =  196.966; ZVAL   =   11.000    mass and valenz                      
   RCORE  =    2.500    outmost cutoff radius                                   
   RWIGS  =    2.840; RWIGS  =    1.503    wigner-seitz radius (au A)           
   ENMAX  =  229.943; ENMIN  =  172.457 eV                                      
   ICORE  =        3    local potential                                         
   LCOR   =        T    correct aug charges                                     
   LPAW   =        T    paw PP                                                  
   EAUG   =  356.670                                                            
   DEXC   =    0.000                                                            
   RMAX   =    2.562    core radius for proj-oper                               
   RAUG   =    1.300    factor for augmentation sphere                          
   RDEP   =    2.598    radius for radial grids                                 
   RDEPT  =    2.193    core radius for aug-charge                              
                                                                                
   Atomic configuration                                                         
   16 entries                                                                   
     n  l   j            E        occ.                                          
     1  0  0.50    -80748.5001   2.0000                                         
     2  0  0.50    -14244.7466   2.0000                                         
     2  1  1.50    -12310.9591   6.0000                                         
     3  0  0.50     -3362.1768   2.0000                                         
     3  1  1.50     -2801.5463   6.0000                                         
     3  2  2.50     -2203.8206  10.0000                                         
     4  0  0.50      -729.8168   2.0000                                         
     4  1  1.50      -546.0527   6.0000                                         
     4  2  2.50      -325.7302  10.0000                                         
     4  3  3.50       -81.1472  14.0000                                         
     5  0  0.50      -108.3201   2.0000                                         
     5  1  1.50       -59.7479   6.0000                                         
     5  2  2.50        -6.8783  10.0000                                         
     6  0  0.50        -5.7602   1.0000                                         
     6  1  1.50        -6.8029   0.0000                                         
     5  3  2.50        -1.3606   0.0000                                         
   Description                                                                  
     l       E           TYP  RCUT    TYP  RCUT                                 
     2     -6.8782861     23  2.500                                             
     2     -8.2388687     23  2.500                                             
     0     -5.7601759     23  2.500                                             
     0     -0.8493231     23  2.500                                             
     1     -2.7211652     23  2.500                                             
     1     27.2116520     23  2.500                                             
     3     -1.3605826     23  2.500                                             
  local pseudopotential read in
  partial core-charges read in
  partial kinetic energy density read in
  atomic valenz-charges read in
  non local Contribution for L=           2  read in
    real space projection operators read in
  non local Contribution for L=           2  read in
    real space projection operators read in
  non local Contribution for L=           0  read in
    real space projection operators read in
  non local Contribution for L=           0  read in
    real space projection operators read in
  non local Contribution for L=           1  read in
    real space projection operators read in
  non local Contribution for L=           1  read in
    real space projection operators read in
    PAW grid and wavefunctions read in
 
   number of l-projection  operators is LMAX  =           6
   number of lm-projection operators is LMMAX =          18
 
 POTCAR:    PAW_PBE C 08Apr2002                   
   VRHFIN =C: s2p2                                                              
   LEXCH  = PE                                                                  
   EATOM  =   147.1560 eV,   10.8157 Ry                                         
                                                                                
   TITEL  = PAW_PBE C 08Apr2002                                                 
   LULTRA =        F    use ultrasoft PP ?                                      
   IUNSCR =        1    unscreen: 0-lin 1-nonlin 2-no                           
   RPACOR =    1.200    partial core radius                                     
   POMASS =   12.011; ZVAL   =    4.000    mass and valenz                      
   RCORE  =    1.500    outmost cutoff radius                                   
   RWIGS  =    1.630; RWIGS  =    0.863    wigner-seitz radius (au A)           
   ENMAX  =  400.000; ENMIN  =  300.000 eV                                      
   ICORE  =        2    local potential                                         
   LCOR   =        T    correct aug charges                                     
   LPAW   =        T    paw PP                                                  
   EAUG   =  644.873                                                            
   DEXC   =    0.000                                                            
   RMAX   =    1.529    core radius for proj-oper                               
   RAUG   =    1.300    factor for augmentation sphere                          
   RDEP   =    1.501    radius for radial grids                                 
   RDEPT  =    1.300    core radius for aug-charge                              
                                                                                
   Atomic configuration                                                         
    4 entries                                                                   
     n  l   j            E        occ.                                          
     1  0  0.50      -273.3789   2.0000                                         
     2  0  0.50       -13.7508   2.0000                                         
     2  1  0.50        -5.2854   2.0000                                         
     3  2  1.50        -5.4423   0.0000                                         
   Description                                                                  
     l       E           TYP  RCUT    TYP  RCUT                                 
     0    -13.7508458     23  1.200                                             
     0     -8.2022199     23  1.200                                             
     1     -5.2854383     23  1.500                                             
     1     34.0145650     23  1.500                                             
     2     -5.4423304      7  1.500                                             
  local pseudopotential read in
  partial core-charges read in
  partial kinetic energy density read in
  atomic valenz-charges read in
  non local Contribution for L=           0  read in
    real space projection operators read in
  non local Contribution for L=           0  read in
    real space projection operators read in
  non local Contribution for L=           1  read in
    real space projection operators read in
  non local Contribution for L=           1  read in
    real space projection operators read in
    PAW grid and wavefunctions read in
 
   number of l-projection  operators is LMAX  =           4
   number of lm-projection operators is LMMAX =           8
 
 POTCAR:    PAW_PBE H 15Jun2001                   
   VRHFIN =H: ultrasoft test                                                    
   LEXCH  = PE                                                                  
   EATOM  =    12.4884 eV,    0.9179 Ry                                         
                                                                                
   TITEL  = PAW_PBE H 15Jun2001                                                 
   LULTRA =        F    use ultrasoft PP ?                                      
   IUNSCR =        0    unscreen: 0-lin 1-nonlin 2-no                           
   RPACOR =    0.000    partial core radius                                     
   POMASS =    1.000; ZVAL   =    1.000    mass and valenz                      
   RCORE  =    1.100    outmost cutoff radius                                   
   RWIGS  =    0.700; RWIGS  =    0.370    wigner-seitz radius (au A)           
   ENMAX  =  250.000; ENMIN  =  200.000 eV                                      
   RCLOC  =    0.701    cutoff for local pot                                    
   LCOR   =        T    correct aug charges                                     
   LPAW   =        T    paw PP                                                  
   EAUG   =  400.000                                                            
   RMAX   =    1.123    core radius for proj-oper                               
   RAUG   =    1.200    factor for augmentation sphere                          
   RDEP   =    1.112    radius for radial grids                                 
   RDEPT  =    0.926    core radius for aug-charge                              
                                                                                
   Atomic configuration                                                         
    2 entries                                                                   
     n  l   j            E        occ.                                          
     1  0  0.50        -6.4927   1.0000                                         
     2  1  0.50        -3.4015   0.0000                                         
   Description                                                                  
     l       E           TYP  RCUT    TYP  RCUT                                 
     0     -6.4927494     23  1.100                                             
     0      6.8029130     23  1.100                                             
     1     -4.0817478     23  1.100                                             
  local pseudopotential read in
  atomic valenz-charges read in
  non local Contribution for L=           0  read in
    real space projection operators read in
  non local Contribution for L=           0  read in
    real space projection operators read in
  non local Contribution for L=           1  read in
    real space projection operators read in
    PAW grid and wavefunctions read in
 
   number of l-projection  operators is LMAX  =           3
   number of lm-projection operators is LMMAX =           5
 
 POTCAR:    PAW_PBE Ir 06Sep2000                  
   VRHFIN =Ir: s1d8                                                             
   LEXCH  = PE                                                                  
   EATOM  =   560.1833 eV,   41.1723 Ry                                         
                                                                                
   TITEL  = PAW_PBE Ir 06Sep2000                                                
   LULTRA =        F    use ultrasoft PP ?                                      
   IUNSCR =        1    unscreen: 0-lin 1-nonlin 2-no                           
   RPACOR =    2.250    partial core radius                                     
   POMASS =  192.220; ZVAL   =    9.000    mass and valenz                      
   RCORE  =    2.600    outmost cutoff radius                                   
   RWIGS  =    2.690; RWIGS  =    1.423    wigner-seitz radius (au A)           
   ENMAX  =  210.864; ENMIN  =  158.148 eV                                      
   RCLOC  =    1.857    cutoff for local pot                                    
   LCOR   =        T    correct aug charges                                     
   LPAW   =        T    paw PP                                                  
   EAUG   =  318.962                                                            
   DEXC   =    0.000                                                            
   RMAX   =    2.667    core radius for proj-oper                               
   RAUG   =    1.300    factor for augmentation sphere                          
   RDEP   =    2.748    radius for radial grids                                 
   RDEPT  =    2.300    core radius for aug-charge                              
                                                                                
   Atomic configuration                                                         
   16 entries                                                                   
     n  l   j            E        occ.                                          
     1  0  0.50    -76100.0449   2.0000                                         
     2  0  0.50    -13308.1683   2.0000                                         
     2  1  1.50    -11558.0021   6.0000                                         
     3  0  0.50     -3110.7274   2.0000                                         
     3  1  1.50     -2599.2109   6.0000                                         
     3  2  2.50     -2037.1515  10.0000                                         
     4  0  0.50      -661.6001   2.0000                                         
     4  1  1.50      -493.8981   6.0000                                         
     4  2  2.50      -288.1909  10.0000                                         
     4  3  3.50       -59.5718  14.0000                                         
     5  0  0.50       -95.3879   2.0000                                         
     5  1  1.50       -52.2747   6.0000                                         
     5  2  2.50        -5.4180   8.0000                                         
     6  0  0.50        -5.5479   1.0000                                         
     6  1  1.50        -6.8029   0.0000                                         
     5  3  2.50        -1.3606   0.0000                                         
   Description                                                                  
     l       E           TYP  RCUT    TYP  RCUT                                 
     2     -5.4179967     23  2.600                                             
     2     -6.7785793     23  2.600                                             
     0     -5.5478636     23  2.600                                             
     0      2.2542272     23  2.600                                             
     1     -2.7211652     23  2.600                                             
     1     20.4087390     23  2.600                                             
  local pseudopotential read in
  partial core-charges read in
  partial kinetic energy density read in
  atomic valenz-charges read in
  non local Contribution for L=           2  read in
    real space projection operators read in
  non local Contribution for L=           2  read in
    real space projection operators read in
  non local Contribution for L=           0  read in
    real space projection operators read in
  non local Contribution for L=           0  read in
    real space projection operators read in
  non local Contribution for L=           1  read in
    real space projection operators read in
  non local Contribution for L=           1  read in
    real space projection operators read in
    PAW grid and wavefunctions read in
 
   number of l-projection  operators is LMAX  =           6
   number of lm-projection operators is LMMAX =          18
 
 POTCAR:    PAW_PBE Pt 04Feb2005                  
   VRHFIN =Pt: s1d9                                                             
   LEXCH  = PE                                                                  
   EATOM  =   729.1176 eV,   53.5886 Ry                                         
                                                                                
   TITEL  = PAW_PBE Pt 04Feb2005                                                
   LULTRA =        F    use ultrasoft PP ?                                      
   IUNSCR =        1    unscreen: 0-lin 1-nonlin 2-no                           
   RPACOR =    2.330    partial core radius                                     
   POMASS =  195.080; ZVAL   =   10.000    mass and valenz                      
   RCORE  =    2.600    outmost cutoff radius                                   
   RWIGS  =    2.750; RWIGS  =    1.455    wigner-seitz radius (au A)           
   ENMAX  =  230.283; ENMIN  =  172.712 eV                                      
   ICORE  =        3    local potential                                         
   LCOR   =        T    correct aug charges                                     
   LPAW   =        T    paw PP                                                  
   EAUG   =  358.966                                                            
   DEXC   =    0.000                                                            
   RMAX   =    2.658    core radius for proj-oper                               
   RAUG   =    1.300    factor for augmentation sphere                          
   RDEP   =    2.761    radius for radial grids                                 
   RDEPT  =    2.203    core radius for aug-charge                              
                                                                                
   Atomic configuration                                                         
   16 entries                                                                   
     n  l   j            E        occ.                                          
     1  0  0.50    -78401.1885   2.0000                                         
     2  0  0.50    -13770.7750   2.0000                                         
     2  1  1.50    -11931.0468   6.0000                                         
     3  0  0.50     -3234.7234   2.0000                                         
     3  1  1.50     -2699.2216   6.0000                                         
     3  2  2.50     -2119.5714  10.0000                                         
     4  0  0.50      -695.1528   2.0000                                         
     4  1  1.50      -519.6034   6.0000                                         
     4  2  2.50      -306.6786  10.0000                                         
     4  3  3.50       -70.1041  14.0000                                         
     5  0  0.50      -101.7747   2.0000                                         
     5  1  1.50       -55.9873   6.0000                                         
     5  2  2.50        -6.1423   9.0000                                         
     6  0  0.50        -5.6573   1.0000                                         
     6  1  1.50        -6.8029   0.0000                                         
     5  3  2.50        -1.3606   0.0000                                         
   Description                                                                  
     l       E           TYP  RCUT    TYP  RCUT                                 
     2     -6.1423404     23  2.500                                             
     2     -7.5029230     23  2.500                                             
     0     -5.6573207     23  2.500                                             
     0      0.7416693     23  2.500                                             
     1     -2.7211652     23  2.600                                             
     1     20.4087390     23  2.600                                             
     3     -1.3605826     23  2.500                                             
  local pseudopotential read in
  partial core-charges read in
  partial kinetic energy density read in
  atomic valenz-charges read in
  non local Contribution for L=           2  read in
    real space projection operators read in
  non local Contribution for L=           2  read in
    real space projection operators read in
  non local Contribution for L=           0  read in
    real space projection operators read in
  non local Contribution for L=           0  read in
    real space projection operators read in
  non local Contribution for L=           1  read in
    real space projection operators read in
  non local Contribution for L=           1  read in
    real space projection operators read in
    PAW grid and wavefunctions read in
 
   number of l-projection  operators is LMAX  =           6
   number of lm-projection operators is LMMAX =          18
 
 Optimization of the real space projectors (new method)

 maximal supplied QI-value         = 15.12
 optimisation between [QCUT,QGAM] = [  9.52, 19.05] = [ 25.40,101.61] Ry 
 Optimized for a Real-space Cutoff    1.57 Angstroem

   l    n(q)    QCUT    max X(q) W(low)/X(q) W(high)/X(q)  e(spline) 
   2      8     9.524    60.898    0.38E-03    0.43E-04    0.84E-07
   2      8     9.524    58.894    0.38E-03    0.47E-04    0.88E-07
   0      9     9.524   109.617    0.60E-04    0.64E-04    0.80E-07
   0      9     9.524    75.026    0.59E-04    0.62E-04    0.78E-07
   1      8     9.524    16.344    0.99E-04    0.18E-03    0.87E-07
   1      8     9.524    10.160    0.78E-04    0.15E-03    0.74E-07
 Optimization of the real space projectors (new method)

 maximal supplied QI-value         = 25.13
 optimisation between [QCUT,QGAM] = [  9.55, 19.10] = [ 25.54,102.17] Ry 
 Optimized for a Real-space Cutoff    1.39 Angstroem

   l    n(q)    QCUT    max X(q) W(low)/X(q) W(high)/X(q)  e(spline) 
   0      8     9.551   115.676    0.39E-03    0.54E-03    0.29E-06
   0      8     9.551    87.132    0.39E-03    0.54E-03    0.28E-06
   1      7     9.551     4.429    0.35E-03    0.51E-04    0.29E-06
   1      7     9.551     2.733    0.22E-03    0.42E-04    0.31E-06
 Optimization of the real space projectors (new method)

 maximal supplied QI-value         = 34.20
 optimisation between [QCUT,QGAM] = [  9.58, 19.15] = [ 25.68,102.74] Ry 
 Optimized for a Real-space Cutoff    1.31 Angstroem

   l    n(q)    QCUT    max X(q) W(low)/X(q) W(high)/X(q)  e(spline) 
   0      7     9.577    19.460    0.33E-03    0.12E-03    0.35E-06
   0      7     9.577    12.209    0.33E-03    0.11E-03    0.33E-06
   1      7     9.577     4.655    0.39E-03    0.14E-02    0.33E-06
 Optimization of the real space projectors (new method)

 maximal supplied QI-value         = 14.36
 optimisation between [QCUT,QGAM] = [  9.48, 19.10] = [ 25.16,102.17] Ry 
 Optimized for a Real-space Cutoff    1.57 Angstroem

   l    n(q)    QCUT    max X(q) W(low)/X(q) W(high)/X(q)  e(spline) 
   2      8     9.479   134.116    0.18E-03    0.75E-03    0.26E-06
   2      8     9.479   130.192    0.18E-03    0.75E-03    0.27E-06
   0      9     9.479    60.310    0.39E-03    0.24E-03    0.63E-07
   0      9     9.479    39.218    0.36E-03    0.22E-03    0.59E-07
   1      8     9.479    18.439    0.20E-03    0.15E-03    0.16E-06
   1      8     9.479    12.760    0.16E-03    0.11E-03    0.13E-06
 Optimization of the real space projectors (new method)

 maximal supplied QI-value         = 14.36
 optimisation between [QCUT,QGAM] = [  9.48, 19.10] = [ 25.16,102.17] Ry 
 Optimized for a Real-space Cutoff    1.57 Angstroem

   l    n(q)    QCUT    max X(q) W(low)/X(q) W(high)/X(q)  e(spline) 
   2      8     9.479    66.195    0.35E-03    0.53E-04    0.87E-07
   2      8     9.479    64.643    0.35E-03    0.57E-04    0.91E-07
   0      9     9.479    95.520    0.50E-04    0.62E-04    0.81E-07
   0      9     9.479    63.403    0.49E-04    0.60E-04    0.78E-07
   1      8     9.479    19.961    0.10E-03    0.87E-04    0.11E-06
   1      8     9.479    13.289    0.88E-04    0.71E-04    0.97E-07
  PAW_PBE Au 04Oct2007                  :
 energy of atom  1       EATOM= -926.0867
 kinetic energy error for atom=    0.0152 (will be added to EATOM!!)
  PAW_PBE C 08Apr2002                   :
 energy of atom  2       EATOM= -147.1560
 kinetic energy error for atom=    0.0854 (will be added to EATOM!!)
  PAW_PBE H 15Jun2001                   :
 energy of atom  3       EATOM=  -12.4884
 kinetic energy error for atom=    0.0203 (will be added to EATOM!!)
  PAW_PBE Ir 06Sep2000                  :
 energy of atom  4       EATOM= -560.1833
 kinetic energy error for atom=    0.0056 (will be added to EATOM!!)
  PAW_PBE Pt 04Feb2005                  :
 energy of atom  5       EATOM= -729.1176
 kinetic energy error for atom=    0.0144 (will be added to EATOM!!)
 
 
 POSCAR: Au  C  H Ir Pt                          
  positions in cartesian coordinates
  No initial velocities read in
 exchange correlation table for  LEXCH =        8
   RHO(1)=    0.500       N(1)  =     2000
   RHO(2)=  100.500       N(2)  =     4000
 


--------------------------------------------------------------------------------------------------------


 ion  position               nearest neighbor table
   1  0.342  0.825  0.541-  13 2.76  21 2.76  20 2.78  20 2.78  10 2.78   8 2.78  21 2.80  13 2.80
                            15 2.81  17 2.82  14 2.84  11 2.96
   2  0.011  0.981  0.690-   4 1.10   5 1.10   6 1.10  11 2.07
   3  0.034  0.491  0.668-   9 1.55
   4  0.994  0.174  0.702-   2 1.10
   5  0.830  0.965  0.700-   2 1.10
   6  0.204  0.800  0.701-   2 1.10
   7  0.498  0.000  0.389-  12 2.76  19 2.76  18 2.78  18 2.78  19 2.79  12 2.80  16 2.82  14 2.83
                            17 2.84
   8  0.522  0.485  0.614-  13 2.75   9 2.78  10 2.78  10 2.78  11 2.78   1 2.78   9 2.79  20 2.80
                            11 2.80
   9  0.020  0.486  0.618-   3 1.55   8 2.78  10 2.78  11 2.78  11 2.78  10 2.79   8 2.79  20 2.86
                            13 2.87  21 2.88
  10  0.521  0.985  0.614-  21 2.75   9 2.78   8 2.78   8 2.78   1 2.78   9 2.79  11 2.79  11 2.80
                            20 2.80
  11  0.019  0.986  0.623-   2 2.07   8 2.78   9 2.78   9 2.78  10 2.79  10 2.80   8 2.80   1 2.96
                            13 3.00  21 3.00
  12  0.002  0.999  0.390-   7 2.76  18 2.76  19 2.78  19 2.78  18 2.79   7 2.80  16 2.80  17 2.85
                            15 2.86
  13  0.848  0.321  0.541-   8 2.75   1 2.76  21 2.77  20 2.77  17 2.78  20 2.79  21 2.79   1 2.80
                            16 2.85  14 2.86   9 2.87  11 3.00
  14  0.672  0.662  0.465-  17 2.78  16 2.78  15 2.78  16 2.78  15 2.78  17 2.78  19 2.81  18 2.82
                             7 2.83   1 2.84  21 2.85  13 2.86
  15  0.172  0.662  0.466-  21 2.77  16 2.78  17 2.78  14 2.78  17 2.78  14 2.78  16 2.78  20 2.80
                             1 2.81  18 2.84  19 2.85  12 2.86
  16  0.672  0.161  0.464-  17 2.78  15 2.78  14 2.78  14 2.78  15 2.78  17 2.78  12 2.80  20 2.81
                             7 2.82  18 2.83  13 2.85  21 2.86
  17  0.171  0.162  0.466-  13 2.78  16 2.78  15 2.78  14 2.78  15 2.78  14 2.78  16 2.78  20 2.79
                             1 2.82   7 2.84  12 2.85  19 2.86
  18  0.498  0.500  0.390-  12 2.76  19 2.76   7 2.78   7 2.78  19 2.79  12 2.79  14 2.82  16 2.83
                            15 2.84
  19  0.002  0.499  0.390-   7 2.76  18 2.76  12 2.78  12 2.78  18 2.79   7 2.79  14 2.81  15 2.85
                            17 2.86
  20  0.345  0.323  0.540-  13 2.77  21 2.77   1 2.78   1 2.78  21 2.78  13 2.79  17 2.79  15 2.80
                             8 2.80  10 2.80  16 2.81   9 2.86
  21  0.847  0.823  0.541-  10 2.75   1 2.76  13 2.77  15 2.77  20 2.77  20 2.78  13 2.79   1 2.80
                            14 2.85  16 2.86   9 2.88  11 3.00
 
  LATTYP: Found a hexagonal cell.
 ALAT       =     5.5578593001
 C/A-ratio  =     5.5429542221
  
  Lattice vectors:
  
 A1 = (   2.7789296501,  -4.8132473446,   0.0000000000)
 A2 = (  -5.5578593001,   0.0000000000,   0.0000000000)
 A3 = (   0.0000000000,   0.0000000000, -30.8069596737)


Analysis of symmetry for initial positions (statically):
=====================================================================
 Subroutine PRICEL returns:
 Original cell was already a primitive cell.
 

 Routine SETGRP: Setting up the symmetry group for a 
 hexagonal supercell.


 Subroutine GETGRP returns: Found  1 space group operations
 (whereof  1 operations were pure point group operations)
 out of a pool of 24 trial point group operations.


The static configuration has the point symmetry C_1 .


Analysis of symmetry for dynamics (positions and initial velocities):
=====================================================================
 Subroutine PRICEL returns:
 Original cell was already a primitive cell.
 

 Routine SETGRP: Setting up the symmetry group for a 
 hexagonal supercell.


 Subroutine GETGRP returns: Found  1 space group operations
 (whereof  1 operations were pure point group operations)
 out of a pool of 24 trial point group operations.


The dynamic configuration has the point symmetry C_1 .


 Subroutine INISYM returns: Found  1 space group operations
 (whereof  1 operations are pure point group operations),
 and found     1 'primitive' translations

 
 
 KPOINTS: 0.4.Ir1.Au11                            

Automatic generation of k-mesh.
Space group operators:
 irot       det(A)        alpha          n_x          n_y          n_z        tau_x        tau_y        tau_z
    1     1.000000     0.000001     1.000000     0.000000     0.000000     0.000000     0.000000     0.000000
 
 Subroutine IBZKPT returns following result:
 ===========================================
 
 Found     96 irreducible k-points:
 
 Following reciprocal coordinates:
            Coordinates               Weight
  0.062500  0.062500  0.000000     16.000000
  0.000000  0.062500  0.000000     16.000000
 -0.062500  0.000000  0.000000     16.000000
  0.187500  0.062500  0.000000     16.000000
  0.125000  0.187500  0.000000     16.000000
 -0.062500  0.125000  0.000000     16.000000
  0.125000 -0.062500  0.000000     16.000000
 -0.062500 -0.187500  0.000000     16.000000
 -0.187500 -0.125000  0.000000     16.000000
  0.312500  0.062500  0.000000     16.000000
  0.250000  0.312500  0.000000     16.000000
 -0.062500  0.250000  0.000000     16.000000
  0.250000 -0.062500  0.000000     16.000000
 -0.062500 -0.312500  0.000000     16.000000
 -0.312500 -0.250000  0.000000     16.000000
  0.437500  0.062500  0.000000     16.000000
  0.375000  0.437500  0.000000     16.000000
 -0.062500  0.375000  0.000000     16.000000
  0.375000 -0.062500  0.000000     16.000000
 -0.062500 -0.437500  0.000000     16.000000
 -0.437500 -0.375000  0.000000     16.000000
 -0.437500  0.062500  0.000000     16.000000
  0.500000 -0.437500  0.000000     16.000000
 -0.062500  0.500000  0.000000     16.000000
  0.500000 -0.062500  0.000000     16.000000
 -0.062500  0.437500  0.000000     16.000000
  0.437500  0.500000  0.000000     16.000000
 -0.312500  0.062500  0.000000     16.000000
 -0.375000 -0.312500  0.000000     16.000000
 -0.062500 -0.375000  0.000000     16.000000
 -0.375000 -0.062500  0.000000     16.000000
 -0.062500  0.312500  0.000000     16.000000
  0.312500  0.375000  0.000000     16.000000
 -0.187500  0.062500  0.000000     16.000000
 -0.250000 -0.187500  0.000000     16.000000
 -0.062500 -0.250000  0.000000     16.000000
 -0.250000 -0.062500  0.000000     16.000000
 -0.062500  0.187500  0.000000     16.000000
  0.187500  0.250000  0.000000     16.000000
 -0.062500  0.062500  0.000000     16.000000
 -0.125000 -0.062500  0.000000     16.000000
 -0.062500 -0.125000  0.000000     16.000000
  0.187500  0.187500  0.000000     16.000000
  0.000000  0.187500  0.000000     16.000000
 -0.187500  0.000000  0.000000     16.000000
  0.312500  0.187500  0.000000     16.000000
  0.125000  0.312500  0.000000     16.000000
 -0.187500  0.125000  0.000000     16.000000
  0.125000 -0.187500  0.000000     16.000000
 -0.187500 -0.312500  0.000000     16.000000
 -0.312500 -0.125000  0.000000     16.000000
  0.437500  0.187500  0.000000     16.000000
  0.250000  0.437500  0.000000     16.000000
 -0.187500  0.250000  0.000000     16.000000
  0.250000 -0.187500  0.000000     16.000000
 -0.187500 -0.437500  0.000000     16.000000
 -0.437500 -0.250000  0.000000     16.000000
 -0.437500  0.187500  0.000000     16.000000
  0.375000 -0.437500  0.000000     16.000000
 -0.187500  0.375000  0.000000     16.000000
  0.375000 -0.187500  0.000000     16.000000
 -0.187500  0.437500  0.000000     16.000000
  0.437500 -0.375000  0.000000     16.000000
 -0.312500  0.187500  0.000000     16.000000
  0.500000 -0.312500  0.000000     16.000000
 -0.187500  0.500000  0.000000     16.000000
  0.500000 -0.187500  0.000000     16.000000
 -0.187500  0.312500  0.000000     16.000000
  0.312500  0.500000  0.000000     16.000000
 -0.187500  0.187500  0.000000     16.000000
 -0.375000 -0.187500  0.000000     16.000000
 -0.187500 -0.375000  0.000000     16.000000
  0.312500  0.312500  0.000000     16.000000
  0.000000  0.312500  0.000000     16.000000
 -0.312500  0.000000  0.000000     16.000000
  0.437500  0.312500  0.000000     16.000000
  0.125000  0.437500  0.000000     16.000000
 -0.312500  0.125000  0.000000     16.000000
  0.125000 -0.312500  0.000000     16.000000
 -0.312500 -0.437500  0.000000     16.000000
 -0.437500 -0.125000  0.000000     16.000000
 -0.437500  0.312500  0.000000     16.000000
  0.250000 -0.437500  0.000000     16.000000
 -0.312500  0.250000  0.000000     16.000000
  0.250000 -0.312500  0.000000     16.000000
 -0.312500  0.437500  0.000000     16.000000
  0.437500 -0.250000  0.000000     16.000000
 -0.312500  0.312500  0.000000     16.000000
  0.375000 -0.312500  0.000000     16.000000
 -0.312500  0.375000  0.000000     16.000000
  0.437500  0.437500  0.000000     16.000000
  0.000000  0.437500  0.000000     16.000000
 -0.437500 -0.000000  0.000000     16.000000
 -0.437500  0.437500  0.000000     16.000000
  0.125000 -0.437500  0.000000     16.000000
 -0.437500  0.125000  0.000000     16.000000
 
 Following cartesian coordinates:
            Coordinates               Weight
  0.011245  0.006492  0.000000     16.000000
  0.000000  0.012985  0.000000     16.000000
 -0.011245  0.006492  0.000000     16.000000
  0.033736 -0.006492  0.000000     16.000000
  0.022491  0.025970  0.000000     16.000000
 -0.011245  0.032462  0.000000     16.000000
  0.022491 -0.025970  0.000000     16.000000
 -0.011245 -0.032462  0.000000     16.000000
 -0.033736 -0.006492  0.000000     16.000000
  0.056227 -0.019477  0.000000     16.000000
  0.044981  0.038955  0.000000     16.000000
 -0.011245  0.058432  0.000000     16.000000
  0.044981 -0.038955  0.000000     16.000000
 -0.011245 -0.058432  0.000000     16.000000
 -0.056227 -0.019477  0.000000     16.000000
  0.078717 -0.032462  0.000000     16.000000
  0.067472  0.051940  0.000000     16.000000
 -0.011245  0.084402  0.000000     16.000000
  0.067472 -0.051940  0.000000     16.000000
 -0.011245 -0.084402  0.000000     16.000000
 -0.078717 -0.032462  0.000000     16.000000
 -0.078717  0.058432  0.000000     16.000000
  0.089963 -0.142835  0.000000     16.000000
 -0.011245  0.110372  0.000000     16.000000
  0.089963 -0.064925  0.000000     16.000000
 -0.011245  0.097387  0.000000     16.000000
  0.078717  0.058432  0.000000     16.000000
 -0.056227  0.045447  0.000000     16.000000
 -0.067472 -0.025970  0.000000     16.000000
 -0.011245 -0.071417  0.000000     16.000000
 -0.067472  0.025970  0.000000     16.000000
 -0.011245  0.071417  0.000000     16.000000
  0.056227  0.045447  0.000000     16.000000
 -0.033736  0.032462  0.000000     16.000000
 -0.044981 -0.012985  0.000000     16.000000
 -0.011245 -0.045447  0.000000     16.000000
 -0.044981  0.012985  0.000000     16.000000
 -0.011245  0.045447  0.000000     16.000000
  0.033736  0.032462  0.000000     16.000000
 -0.011245  0.019477  0.000000     16.000000
 -0.022491  0.000000  0.000000     16.000000
 -0.011245 -0.019477  0.000000     16.000000
  0.033736  0.019477  0.000000     16.000000
  0.000000  0.038955  0.000000     16.000000
 -0.033736  0.019477  0.000000     16.000000
  0.056227  0.006492  0.000000     16.000000
  0.022491  0.051940  0.000000     16.000000
 -0.033736  0.045447  0.000000     16.000000
  0.022491 -0.051940  0.000000     16.000000
 -0.033736 -0.045447  0.000000     16.000000
 -0.056227  0.006492  0.000000     16.000000
  0.078717 -0.006492  0.000000     16.000000
  0.044981  0.064925  0.000000     16.000000
 -0.033736  0.071417  0.000000     16.000000
  0.044981 -0.064925  0.000000     16.000000
 -0.033736 -0.071417  0.000000     16.000000
 -0.078717 -0.006492  0.000000     16.000000
 -0.078717  0.084402  0.000000     16.000000
  0.067472 -0.129850  0.000000     16.000000
 -0.033736  0.097387  0.000000     16.000000
  0.067472 -0.077910  0.000000     16.000000
 -0.033736  0.110372  0.000000     16.000000
  0.078717 -0.123357  0.000000     16.000000
 -0.056227  0.071417  0.000000     16.000000
  0.089963 -0.116865  0.000000     16.000000
 -0.033736  0.123357  0.000000     16.000000
  0.089963 -0.090895  0.000000     16.000000
 -0.033736  0.084402  0.000000     16.000000
  0.056227  0.071417  0.000000     16.000000
 -0.033736  0.058432  0.000000     16.000000
 -0.067472  0.000000  0.000000     16.000000
 -0.033736 -0.058432  0.000000     16.000000
  0.056227  0.032462  0.000000     16.000000
  0.000000  0.064925  0.000000     16.000000
 -0.056227  0.032462  0.000000     16.000000
  0.078717  0.019477  0.000000     16.000000
  0.022491  0.077910  0.000000     16.000000
 -0.056227  0.058432  0.000000     16.000000
  0.022491 -0.077910  0.000000     16.000000
 -0.056227 -0.058432  0.000000     16.000000
 -0.078717  0.019477  0.000000     16.000000
 -0.078717  0.110372  0.000000     16.000000
  0.044981 -0.116865  0.000000     16.000000
 -0.056227  0.084402  0.000000     16.000000
  0.044981 -0.090895  0.000000     16.000000
 -0.056227  0.123357  0.000000     16.000000
  0.078717 -0.097387  0.000000     16.000000
 -0.056227  0.097387  0.000000     16.000000
  0.067472 -0.103880  0.000000     16.000000
 -0.056227  0.110372  0.000000     16.000000
  0.078717  0.045447  0.000000     16.000000
  0.000000  0.090895  0.000000     16.000000
 -0.078717  0.045447  0.000000     16.000000
 -0.078717  0.136342  0.000000     16.000000
  0.022491 -0.103880  0.000000     16.000000
 -0.078717  0.071417  0.000000     16.000000
 


--------------------------------------------------------------------------------------------------------




 Dimension of arrays:
   k-points           NKPTS =     96   k-points in BZ     NKDIM =     96   number of bands    NBANDS=    100
   number of dos      NEDOS =    301   number of ions     NIONS =     21
   non local maximal  LDIM  =      6   non local SUM 2l+1 LMDIM =     18
   total plane-waves  NPLWV = 112896
   max r-space proj   IRMAX =   2252   max aug-charges    IRDMAX=  10104
   dimension x,y,z NGX =    28 NGY =   28 NGZ =  144
   dimension x,y,z NGXF=    56 NGYF=   56 NGZF=  288
   support grid    NGXF=    56 NGYF=   56 NGZF=  288
   ions per type =               1   1   4   1  14
   NGX,Y,Z   is equivalent  to a cutoff of   8.38,  8.38,  7.77 a.u.
   NGXF,Y,Z  is equivalent  to a cutoff of  16.75, 16.75, 15.54 a.u.

 SYSTEM =  0.4.Ir1.Au11                            
 POSCAR =  Au  C  H Ir Pt                          

 Startparameter for this run:
   NWRITE =      2    write-flag & timer
   PREC   = normal    normal or accurate (medium, high low for compatibility)
   ISTART =      0    job   : 0-new  1-cont  2-samecut
   ICHARG =      2    charge: 1-file 2-atom 10-const
   ISPIN  =      1    spin polarized calculation?
   LNONCOLLINEAR =      F non collinear calculations
   LSORBIT =      F    spin-orbit coupling
   INIWAV =      1    electr: 0-lowe 1-rand  2-diag
   LASPH  =      F    aspherical Exc in radial PAW
   METAGGA=      F    non-selfconsistent MetaGGA calc.

 Electronic Relaxation 1
   ENCUT  =  350.0 eV  25.72 Ry    5.07 a.u.   8.48  8.48 46.99*2*pi/ulx,y,z
   ENINI  =  350.0     initial cutoff
   ENAUG  =  644.9 eV  augmentation charge cutoff
   NELM   =   1000;   NELMIN=  5; NELMDL= -5     # of ELM steps 
   EDIFF  = 0.1E-04   stopping-criterion for ELM
   LREAL  =      T    real-space projection
   NLSPLINE    = F    spline interpolate recip. space projectors
   LCOMPAT=      F    compatible to vasp.4.4
   GGA_COMPAT  = T    GGA compatible to vasp.4.4-vasp.4.6
   LMAXPAW     = -100 max onsite density
   LMAXMIX     =    2 max onsite mixed and CHGCAR
   VOSKOWN=      0    Vosko Wilk Nusair interpolation
   ROPT   =   -0.00050  -0.00050  -0.00050  -0.00050
   ROPT   =   -0.00050
 Ionic relaxation
   EDIFFG = 0.1E-03   stopping-criterion for IOM
   NSW    =      0    number of steps for IOM
   NBLOCK =      1;   KBLOCK =      1    inner block; outer block 
   IBRION =     -1    ionic relax: 0-MD 1-quasi-New 2-CG
   NFREE  =      0    steps in history (QN), initial steepest desc. (CG)
   ISIF   =      2    stress and relaxation
   IWAVPR =     10    prediction:  0-non 1-charg 2-wave 3-comb
   ISYM   =      2    0-nonsym 1-usesym 2-fastsym
   LCORR  =      T    Harris-Foulkes like correction to forces

   POTIM  = 0.5000    time-step for ionic-motion
   TEIN   =    0.0    initial temperature
   TEBEG  =    0.0;   TEEND  =   0.0 temperature during run
   SMASS  =  -3.00    Nose mass-parameter (am)
   estimated Nose-frequenzy (Omega)   =  0.10E-29 period in steps =****** mass=  -0.706E-27a.u.
   SCALEE = 1.0000    scale energy and forces
   NPACO  =    256;   APACO  = 16.0  distance and # of slots for P.C.
   PSTRESS=    0.0 pullay stress

  Mass of Ions in am
   POMASS = 196.97 12.01  1.00192.22195.08
  Ionic Valenz
   ZVAL   =  11.00  4.00  1.00  9.00 10.00
  Atomic Wigner-Seitz radii
   RWIGS  =  -1.00 -1.00 -1.00 -1.00 -1.00
  virtual crystal weights 
   VCA    =   1.00  1.00  1.00  1.00  1.00
   NELECT =     168.0000    total number of electrons
   NUPDOWN=      -1.0000    fix difference up-down

 DOS related values:
   EMIN   =  10.00;   EMAX   =-10.00  energy-range for DOS
   EFERMI =   0.00
   ISMEAR =     1;   SIGMA  =   0.20  broadening in eV -4-tet -1-fermi 0-gaus

 Electronic relaxation 2 (details)
   IALGO  =     38    algorithm
   LDIAG  =      T    sub-space diagonalisation (order eigenvalues)
   LSUBROT=      F    optimize rotation matrix (better conditioning)
   TURBO    =      0    0=normal 1=particle mesh
   IRESTART =      0    0=no restart 2=restart with 2 vectors
   NREBOOT  =      0    no. of reboots
   NMIN     =      0    reboot dimension
   EREF     =   0.00    reference energy to select bands
   IMIX   =      4    mixing-type and parameters
     AMIX     =   0.40;   BMIX     =  1.00
     AMIX_MAG =   1.60;   BMIX_MAG =  1.00
     AMIN     =   0.10
     WC   =   100.;   INIMIX=   1;  MIXPRE=   1;  MAXMIX= -45

 Intra band minimization:
   WEIMIN = 0.0000     energy-eigenvalue tresh-hold
   EBREAK =  0.25E-07  absolut break condition
   DEPER  =   0.30     relativ break condition  

   TIME   =   0.40     timestep for ELM

  volume/ion in A,a.u.               =      39.24       264.83
  Fermi-wavevector in a.u.,A,eV,Ry     =   0.963488  1.820729 12.630418  0.928310
  Thomas-Fermi vector in A             =   2.093038
 
 Write flags
   LWAVE        =      F    write WAVECAR
   LDOWNSAMPLE  =      F    k-point downsampling of WAVECAR
   LCHARG       =      F    write CHGCAR
   LVTOT        =      F    write LOCPOT, total local potential
   LVHAR        =      F    write LOCPOT, Hartree potential only
   LELF         =      F    write electronic localiz. function (ELF)
   LORBIT       =      0    0 simple, 1 ext, 2 COOP (PROOUT), +10 PAW based schemes


 Dipole corrections
   LMONO  =      F    monopole corrections only (constant potential shift)
   LDIPOL =      F    correct potential (dipole corrections)
   IDIPOL =      3    1-x, 2-y, 3-z, 4-all directions 
   EPSILON=  1.0000000 bulk dielectric constant

 Exchange correlation treatment:
   GGA     =    --    GGA type
   LEXCH   =     8    internal setting for exchange type
   VOSKOWN=      0    Vosko Wilk Nusair interpolation
   LHFCALC =     F    Hartree Fock is set to
   LHFONE  =     F    Hartree Fock one center treatment
   AEXX    =    0.0000 exact exchange contribution

 Linear response parameters
   LEPSILON=     F    determine dielectric tensor
   LRPA    =     F    only Hartree local field effects (RPA)
   LNABLA  =     F    use nabla operator in PAW spheres
   LVEL    =     F    velocity operator in full k-point grid
   LINTERFAST=   F  fast interpolation
   KINTER  =     0    interpolate to denser k-point grid
   CSHIFT  =0.1000    complex shift for real part using Kramers Kronig
   OMEGAMAX=  -1.0    maximum frequency
   DEG_THRESHOLD= 0.2000000E-02 threshold for treating states as degnerate
   RTIME   =   -0.100 relaxation time in fs
  (WPLASMAI=    0.000 imaginary part of plasma frequency in eV, 0.658/RTIME)
   DFIELD  = 0.0000000 0.0000000 0.0000000 field for delta impulse in time
 
 Orbital magnetization related:
   ORBITALMAG=     F  switch on orbital magnetization
   LCHIMAG   =     F  perturbation theory with respect to B field
   DQ        =  0.001000  dq finite difference perturbation B field
   LLRAUG    =     F  two centre corrections for induced B field



--------------------------------------------------------------------------------------------------------


 Static calculation
 charge density and potential will be updated during run
 non-spin polarized calculation
 Variant of blocked Davidson
 Davidson routine will perform the subspace rotation
 perform sub-space diagonalisation
    after iterative eigenvector-optimisation
 modified Broyden-mixing scheme, WC =      100.0
 initial mixing is a Kerker type mixing with AMIX =  0.4000 and BMIX =      1.0000
 Hartree-type preconditioning will be used
 using additional bands           16
 real space projection scheme for non local part
 use partial core corrections
 calculate Harris-corrections to forces 
   (improved forces if not selfconsistent)
 use gradient corrections 
 use of overlap-Matrix (Vanderbilt PP)
 Methfessel and Paxton  Order N= 1 SIGMA  =   0.20


--------------------------------------------------------------------------------------------------------


  energy-cutoff  :      350.00
  volume of cell :      824.13
      direct lattice vectors                 reciprocal lattice vectors
     5.557859300  0.000000000  0.000000000     0.179925390 -0.103879972  0.000000000
     2.778929650  4.813247345  0.000000000     0.000000000  0.207759944  0.000000000
     0.000000000  0.000000000 30.806959674     0.000000000  0.000000000  0.032460198

  length of vectors
     5.557859300  5.557859300 30.806959674     0.207759944  0.207759944  0.032460198


 
 k-points in units of 2pi/SCALE and weight: 0.4.Ir1.Au11                            
   0.01124534  0.00649250  0.00000000       0.010
   0.00000000  0.01298500  0.00000000       0.010
  -0.01124534  0.00649250  0.00000000       0.010
   0.03373601 -0.00649250  0.00000000       0.010
   0.02249067  0.02596999  0.00000000       0.010
  -0.01124534  0.03246249  0.00000000       0.010
   0.02249067 -0.02596999  0.00000000       0.010
  -0.01124534 -0.03246249  0.00000000       0.010
  -0.03373601 -0.00649250  0.00000000       0.010
   0.05622668 -0.01947749  0.00000000       0.010
   0.04498135  0.03895499  0.00000000       0.010
  -0.01124534  0.05843248  0.00000000       0.010
   0.04498135 -0.03895499  0.00000000       0.010
  -0.01124534 -0.05843248  0.00000000       0.010
  -0.05622668 -0.01947749  0.00000000       0.010
   0.07871736 -0.03246249  0.00000000       0.010
   0.06747202  0.05193999  0.00000000       0.010
  -0.01124534  0.08440248  0.00000000       0.010
   0.06747202 -0.05193999  0.00000000       0.010
  -0.01124534 -0.08440248  0.00000000       0.010
  -0.07871736 -0.03246249  0.00000000       0.010
  -0.07871736  0.05843248  0.00000000       0.010
   0.08996269 -0.14283496  0.00000000       0.010
  -0.01124534  0.11037247  0.00000000       0.010
   0.08996269 -0.06492498  0.00000000       0.010
  -0.01124534  0.09738747  0.00000000       0.010
   0.07871736  0.05843248  0.00000000       0.010
  -0.05622668  0.04544749  0.00000000       0.010
  -0.06747202 -0.02596999  0.00000000       0.010
  -0.01124534 -0.07141748  0.00000000       0.010
  -0.06747202  0.02596999  0.00000000       0.010
  -0.01124534  0.07141748  0.00000000       0.010
   0.05622668  0.04544749  0.00000000       0.010
  -0.03373601  0.03246249  0.00000000       0.010
  -0.04498135 -0.01298500  0.00000000       0.010
  -0.01124534 -0.04544749  0.00000000       0.010
  -0.04498135  0.01298500  0.00000000       0.010
  -0.01124534  0.04544749  0.00000000       0.010
   0.03373601  0.03246249  0.00000000       0.010
  -0.01124534  0.01947749  0.00000000       0.010
  -0.02249067  0.00000000  0.00000000       0.010
  -0.01124534 -0.01947749  0.00000000       0.010
   0.03373601  0.01947749  0.00000000       0.010
   0.00000000  0.03895499  0.00000000       0.010
  -0.03373601  0.01947749  0.00000000       0.010
   0.05622668  0.00649250  0.00000000       0.010
   0.02249067  0.05193999  0.00000000       0.010
  -0.03373601  0.04544749  0.00000000       0.010
   0.02249067 -0.05193999  0.00000000       0.010
  -0.03373601 -0.04544749  0.00000000       0.010
  -0.05622668  0.00649250  0.00000000       0.010
   0.07871736 -0.00649250  0.00000000       0.010
   0.04498135  0.06492498  0.00000000       0.010
  -0.03373601  0.07141748  0.00000000       0.010
   0.04498135 -0.06492498  0.00000000       0.010
  -0.03373601 -0.07141748  0.00000000       0.010
  -0.07871736 -0.00649250  0.00000000       0.010
  -0.07871736  0.08440248  0.00000000       0.010
   0.06747202 -0.12984997  0.00000000       0.010
  -0.03373601  0.09738747  0.00000000       0.010
   0.06747202 -0.07790998  0.00000000       0.010
  -0.03373601  0.11037247  0.00000000       0.010
   0.07871736 -0.12335747  0.00000000       0.010
  -0.05622668  0.07141748  0.00000000       0.010
   0.08996269 -0.11686497  0.00000000       0.010
  -0.03373601  0.12335747  0.00000000       0.010
   0.08996269 -0.09089498  0.00000000       0.010
  -0.03373601  0.08440248  0.00000000       0.010
   0.05622668  0.07141748  0.00000000       0.010
  -0.03373601  0.05843248  0.00000000       0.010
  -0.06747202  0.00000000  0.00000000       0.010
  -0.03373601 -0.05843248  0.00000000       0.010
   0.05622668  0.03246249  0.00000000       0.010
   0.00000000  0.06492498  0.00000000       0.010
  -0.05622668  0.03246249  0.00000000       0.010
   0.07871736  0.01947749  0.00000000       0.010
   0.02249067  0.07790998  0.00000000       0.010
  -0.05622668  0.05843248  0.00000000       0.010
   0.02249067 -0.07790998  0.00000000       0.010
  -0.05622668 -0.05843248  0.00000000       0.010
  -0.07871736  0.01947749  0.00000000       0.010
  -0.07871736  0.11037247  0.00000000       0.010
   0.04498135 -0.11686497  0.00000000       0.010
  -0.05622668  0.08440248  0.00000000       0.010
   0.04498135 -0.09089498  0.00000000       0.010
  -0.05622668  0.12335747  0.00000000       0.010
   0.07871736 -0.09738747  0.00000000       0.010
  -0.05622668  0.09738747  0.00000000       0.010
   0.06747202 -0.10387997  0.00000000       0.010
  -0.05622668  0.11037247  0.00000000       0.010
   0.07871736  0.04544749  0.00000000       0.010
   0.00000000  0.09089498  0.00000000       0.010
  -0.07871736  0.04544749  0.00000000       0.010
  -0.07871736  0.13634246  0.00000000       0.010
   0.02249067 -0.10387997  0.00000000       0.010
  -0.07871736  0.07141748  0.00000000       0.010
 
 k-points in reciprocal lattice and weights: 0.4.Ir1.Au11                            
   0.06250000  0.06250000  0.00000000       0.010
   0.00000000  0.06250000  0.00000000       0.010
  -0.06250000  0.00000000  0.00000000       0.010
   0.18750000  0.06250000  0.00000000       0.010
   0.12500000  0.18750000  0.00000000       0.010
  -0.06250000  0.12500000  0.00000000       0.010
   0.12500000 -0.06250000  0.00000000       0.010
  -0.06250000 -0.18750000  0.00000000       0.010
  -0.18750000 -0.12500000  0.00000000       0.010
   0.31250000  0.06250000  0.00000000       0.010
   0.25000000  0.31250000  0.00000000       0.010
  -0.06250000  0.25000000  0.00000000       0.010
   0.25000000 -0.06250000  0.00000000       0.010
  -0.06250000 -0.31250000  0.00000000       0.010
  -0.31250000 -0.25000000  0.00000000       0.010
   0.43750000  0.06250000  0.00000000       0.010
   0.37500000  0.43750000  0.00000000       0.010
  -0.06250000  0.37500000  0.00000000       0.010
   0.37500000 -0.06250000  0.00000000       0.010
  -0.06250000 -0.43750000  0.00000000       0.010
  -0.43750000 -0.37500000  0.00000000       0.010
  -0.43750000  0.06250000  0.00000000       0.010
   0.50000000 -0.43750000  0.00000000       0.010
  -0.06250000  0.50000000  0.00000000       0.010
   0.50000000 -0.06250000  0.00000000       0.010
  -0.06250000  0.43750000  0.00000000       0.010
   0.43750000  0.50000000  0.00000000       0.010
  -0.31250000  0.06250000  0.00000000       0.010
  -0.37500000 -0.31250000  0.00000000       0.010
  -0.06250000 -0.37500000  0.00000000       0.010
  -0.37500000 -0.06250000  0.00000000       0.010
  -0.06250000  0.31250000  0.00000000       0.010
   0.31250000  0.37500000  0.00000000       0.010
  -0.18750000  0.06250000  0.00000000       0.010
  -0.25000000 -0.18750000  0.00000000       0.010
  -0.06250000 -0.25000000  0.00000000       0.010
  -0.25000000 -0.06250000  0.00000000       0.010
  -0.06250000  0.18750000  0.00000000       0.010
   0.18750000  0.25000000  0.00000000       0.010
  -0.06250000  0.06250000  0.00000000       0.010
  -0.12500000 -0.06250000  0.00000000       0.010
  -0.06250000 -0.12500000  0.00000000       0.010
   0.18750000  0.18750000  0.00000000       0.010
   0.00000000  0.18750000  0.00000000       0.010
  -0.18750000  0.00000000  0.00000000       0.010
   0.31250000  0.18750000  0.00000000       0.010
   0.12500000  0.31250000  0.00000000       0.010
  -0.18750000  0.12500000  0.00000000       0.010
   0.12500000 -0.18750000  0.00000000       0.010
  -0.18750000 -0.31250000  0.00000000       0.010
  -0.31250000 -0.12500000  0.00000000       0.010
   0.43750000  0.18750000  0.00000000       0.010
   0.25000000  0.43750000  0.00000000       0.010
  -0.18750000  0.25000000  0.00000000       0.010
   0.25000000 -0.18750000  0.00000000       0.010
  -0.18750000 -0.43750000  0.00000000       0.010
  -0.43750000 -0.25000000  0.00000000       0.010
  -0.43750000  0.18750000  0.00000000       0.010
   0.37500000 -0.43750000  0.00000000       0.010
  -0.18750000  0.37500000  0.00000000       0.010
   0.37500000 -0.18750000  0.00000000       0.010
  -0.18750000  0.43750000  0.00000000       0.010
   0.43750000 -0.37500000  0.00000000       0.010
  -0.31250000  0.18750000  0.00000000       0.010
   0.50000000 -0.31250000  0.00000000       0.010
  -0.18750000  0.50000000  0.00000000       0.010
   0.50000000 -0.18750000  0.00000000       0.010
  -0.18750000  0.31250000  0.00000000       0.010
   0.31250000  0.50000000  0.00000000       0.010
  -0.18750000  0.18750000  0.00000000       0.010
  -0.37500000 -0.18750000  0.00000000       0.010
  -0.18750000 -0.37500000  0.00000000       0.010
   0.31250000  0.31250000  0.00000000       0.010
   0.00000000  0.31250000  0.00000000       0.010
  -0.31250000  0.00000000  0.00000000       0.010
   0.43750000  0.31250000  0.00000000       0.010
   0.12500000  0.43750000  0.00000000       0.010
  -0.31250000  0.12500000  0.00000000       0.010
   0.12500000 -0.31250000  0.00000000       0.010
  -0.31250000 -0.43750000  0.00000000       0.010
  -0.43750000 -0.12500000  0.00000000       0.010
  -0.43750000  0.31250000  0.00000000       0.010
   0.25000000 -0.43750000  0.00000000       0.010
  -0.31250000  0.25000000  0.00000000       0.010
   0.25000000 -0.31250000  0.00000000       0.010
  -0.31250000  0.43750000  0.00000000       0.010
   0.43750000 -0.25000000  0.00000000       0.010
  -0.31250000  0.31250000  0.00000000       0.010
   0.37500000 -0.31250000  0.00000000       0.010
  -0.31250000  0.37500000  0.00000000       0.010
   0.43750000  0.43750000  0.00000000       0.010
   0.00000000  0.43750000  0.00000000       0.010
  -0.43750000 -0.00000000  0.00000000       0.010
  -0.43750000  0.43750000  0.00000000       0.010
   0.12500000 -0.43750000  0.00000000       0.010
  -0.43750000  0.12500000  0.00000000       0.010
 
 position of ions in fractional coordinates (direct lattice) 
   0.34238725  0.82451727  0.54103004
   0.01074733  0.98109434  0.69017974
   0.03411199  0.49050216  0.66807570
   0.99380001  0.17439922  0.70246789
   0.82975437  0.96478855  0.70031374
   0.20438739  0.80006867  0.70147388
   0.49800063  0.00035644  0.38943133
   0.52177994  0.48469450  0.61415291
   0.02037745  0.48583553  0.61779056
   0.52092045  0.98492434  0.61412914
   0.01929878  0.98633160  0.62293096
   0.00211623  0.99851151  0.38968311
   0.84759418  0.32125635  0.54082826
   0.67188088  0.66154430  0.46469632
   0.17161701  0.66169954  0.46622978
   0.67213082  0.16128225  0.46442436
   0.17140518  0.16159048  0.46626675
   0.49823728  0.50039678  0.38954309
   0.00186262  0.49861253  0.38964762
   0.34533617  0.32323970  0.54007423
   0.84696195  0.82338926  0.54065420
 
 position of ions in cartesian coordinates  (Angst):
   4.19421563  3.96860557 16.66749077
   2.78612430  4.72224971 21.26233952
   1.55266063  2.36090824 20.58138119
   6.00804382  0.83942660 21.64090004
   7.29273753  4.64376592 21.57453721
   3.35929088  3.85092839 21.61027742
   2.76880797  0.00171565 11.99719524
   4.24691144  2.33295453 18.92018401
   1.46335777  2.33844657 19.03224895
   5.63223800  4.74068446 18.91945175
   2.84820604  4.74745795 19.19060882
   2.78655496  4.80608287 12.00495195
   5.60355797  1.54628628 16.66127443
   5.57260448  3.18417635 14.31588092
   2.79263966  3.18492355 14.36312210
   4.18380055  0.77629135 14.30750240
   1.40169446  0.77777495 14.36426087
   4.15970017  2.40853346 12.00063815
   1.39596131  2.39994542 12.00385847
   2.81759024  1.55583264 16.63804518
   6.99543615  3.96317615 16.65591229
 


--------------------------------------------------------------------------------------------------------


 k-point  1 :   0.0625 0.0625 0.0000  plane waves:   12325
 k-point  2 :   0.0000 0.0625 0.0000  plane waves:   12325
 k-point  3 :  -0.0625 0.0000 0.0000  plane waves:   12325
 k-point  4 :   0.1875 0.0625 0.0000  plane waves:   12294
 k-point  5 :   0.1250 0.1875 0.0000  plane waves:   12294
 k-point  6 :  -0.0625 0.1250 0.0000  plane waves:   12294
 k-point  7 :   0.1250-0.0625 0.0000  plane waves:   12294
 k-point  8 :  -0.0625-0.1875 0.0000  plane waves:   12294
 k-point  9 :  -0.1875-0.1250 0.0000  plane waves:   12294
 k-point 10 :   0.3125 0.0625 0.0000  plane waves:   12263
 k-point 11 :   0.2500 0.3125 0.0000  plane waves:   12263
 k-point 12 :  -0.0625 0.2500 0.0000  plane waves:   12263
 k-point 13 :   0.2500-0.0625 0.0000  plane waves:   12263
 k-point 14 :  -0.0625-0.3125 0.0000  plane waves:   12263
 k-point 15 :  -0.3125-0.2500 0.0000  plane waves:   12263
 k-point 16 :   0.4375 0.0625 0.0000  plane waves:   12221
 k-point 17 :   0.3750 0.4375 0.0000  plane waves:   12221
 k-point 18 :  -0.0625 0.3750 0.0000  plane waves:   12221
 k-point 19 :   0.3750-0.0625 0.0000  plane waves:   12221
 k-point 20 :  -0.0625-0.4375 0.0000  plane waves:   12221
 k-point 21 :  -0.4375-0.3750 0.0000  plane waves:   12221
 k-point 22 :  -0.4375 0.0625 0.0000  plane waves:   12211
 k-point 23 :   0.5000-0.4375 0.0000  plane waves:   12211
 k-point 24 :  -0.0625 0.5000 0.0000  plane waves:   12211
 k-point 25 :   0.5000-0.0625 0.0000  plane waves:   12211
 k-point 26 :  -0.0625 0.4375 0.0000  plane waves:   12211
 k-point 27 :   0.4375 0.5000 0.0000  plane waves:   12211
 k-point 28 :  -0.3125 0.0625 0.0000  plane waves:   12242
 k-point 29 :  -0.3750-0.3125 0.0000  plane waves:   12242
 k-point 30 :  -0.0625-0.3750 0.0000  plane waves:   12242
 k-point 31 :  -0.3750-0.0625 0.0000  plane waves:   12242
 k-point 32 :  -0.0625 0.3125 0.0000  plane waves:   12242
 k-point 33 :   0.3125 0.3750 0.0000  plane waves:   12242
 k-point 34 :  -0.1875 0.0625 0.0000  plane waves:   12280
 k-point 35 :  -0.2500-0.1875 0.0000  plane waves:   12280
 k-point 36 :  -0.0625-0.2500 0.0000  plane waves:   12280
 k-point 37 :  -0.2500-0.0625 0.0000  plane waves:   12280
 k-point 38 :  -0.0625 0.1875 0.0000  plane waves:   12280
 k-point 39 :   0.1875 0.2500 0.0000  plane waves:   12280
 k-point 40 :  -0.0625 0.0625 0.0000  plane waves:   12329
 k-point 41 :  -0.1250-0.0625 0.0000  plane waves:   12329
 k-point 42 :  -0.0625-0.1250 0.0000  plane waves:   12329
 k-point 43 :   0.1875 0.1875 0.0000  plane waves:   12277
 k-point 44 :   0.0000 0.1875 0.0000  plane waves:   12277
 k-point 45 :  -0.1875 0.0000 0.0000  plane waves:   12277
 k-point 46 :   0.3125 0.1875 0.0000  plane waves:   12288
 k-point 47 :   0.1250 0.3125 0.0000  plane waves:   12288
 k-point 48 :  -0.1875 0.1250 0.0000  plane waves:   12288
 k-point 49 :   0.1250-0.1875 0.0000  plane waves:   12288
 k-point 50 :  -0.1875-0.3125 0.0000  plane waves:   12288
 k-point 51 :  -0.3125-0.1250 0.0000  plane waves:   12288
 k-point 52 :   0.4375 0.1875 0.0000  plane waves:   12234
 k-point 53 :   0.2500 0.4375 0.0000  plane waves:   12234
 k-point 54 :  -0.1875 0.2500 0.0000  plane waves:   12234
 k-point 55 :   0.2500-0.1875 0.0000  plane waves:   12234
 k-point 56 :  -0.1875-0.4375 0.0000  plane waves:   12234
 k-point 57 :  -0.4375-0.2500 0.0000  plane waves:   12234
 k-point 58 :  -0.4375 0.1875 0.0000  plane waves:   12216
 k-point 59 :   0.3750-0.4375 0.0000  plane waves:   12216
 k-point 60 :  -0.1875 0.3750 0.0000  plane waves:   12216
 k-point 61 :   0.3750-0.1875 0.0000  plane waves:   12216
 k-point 62 :  -0.1875 0.4375 0.0000  plane waves:   12216
 k-point 63 :   0.4375-0.3750 0.0000  plane waves:   12216
 k-point 64 :  -0.3125 0.1875 0.0000  plane waves:   12215
 k-point 65 :   0.5000-0.3125 0.0000  plane waves:   12215
 k-point 66 :  -0.1875 0.5000 0.0000  plane waves:   12215
 k-point 67 :   0.5000-0.1875 0.0000  plane waves:   12215
 k-point 68 :  -0.1875 0.3125 0.0000  plane waves:   12215
 k-point 69 :   0.3125 0.5000 0.0000  plane waves:   12215
 k-point 70 :  -0.1875 0.1875 0.0000  plane waves:   12289
 k-point 71 :  -0.3750-0.1875 0.0000  plane waves:   12289
 k-point 72 :  -0.1875-0.3750 0.0000  plane waves:   12289
 k-point 73 :   0.3125 0.3125 0.0000  plane waves:   12275
 k-point 74 :   0.0000 0.3125 0.0000  plane waves:   12275
 k-point 75 :  -0.3125 0.0000 0.0000  plane waves:   12275
 k-point 76 :   0.4375 0.3125 0.0000  plane waves:   12239
 k-point 77 :   0.1250 0.4375 0.0000  plane waves:   12239
 k-point 78 :  -0.3125 0.1250 0.0000  plane waves:   12239
 k-point 79 :   0.1250-0.3125 0.0000  plane waves:   12239
 k-point 80 :  -0.3125-0.4375 0.0000  plane waves:   12239
 k-point 81 :  -0.4375-0.1250 0.0000  plane waves:   12239
 k-point 82 :  -0.4375 0.3125 0.0000  plane waves:   12235
 k-point 83 :   0.2500-0.4375 0.0000  plane waves:   12235
 k-point 84 :  -0.3125 0.2500 0.0000  plane waves:   12235
 k-point 85 :   0.2500-0.3125 0.0000  plane waves:   12235
 k-point 86 :  -0.3125 0.4375 0.0000  plane waves:   12235
 k-point 87 :   0.4375-0.2500 0.0000  plane waves:   12235
 k-point 88 :  -0.3125 0.3125 0.0000  plane waves:   12232
 k-point 89 :   0.3750-0.3125 0.0000  plane waves:   12232
 k-point 90 :  -0.3125 0.3750 0.0000  plane waves:   12232
 k-point 91 :   0.4375 0.4375 0.0000  plane waves:   12200
 k-point 92 :   0.0000 0.4375 0.0000  plane waves:   12200
 k-point 93 :  -0.4375-0.0000 0.0000  plane waves:   12200
 k-point 94 :  -0.4375 0.4375 0.0000  plane waves:   12214
 k-point 95 :   0.1250-0.4375 0.0000  plane waves:   12214
 k-point 96 :  -0.4375 0.1250 0.0000  plane waves:   12214

 maximum and minimum number of plane-waves per node :      3101     2992

 maximum number of plane-waves:     12329
 maximum index in each direction: 
   IXMAX=    8   IYMAX=    8   IZMAX=   46
   IXMIN=   -8   IYMIN=   -8   IZMIN=  -46


 real space projection operators:
  total allocation   :       5096.45 KBytes
  max/ min on nodes  :       1276.35       1270.66


 parallel 3D FFT for wavefunctions:
    minimum data exchange during FFTs selected (reduces bandwidth)
 parallel 3D FFT for charge:
    minimum data exchange during FFTs selected (reduces bandwidth)


 total amount of memory used by VASP MPI-rank0   164314. kBytes
=======================================================================

   base      :      30000. kBytes
   nonlr-proj:       2361. kBytes
   fftplans  :       2967. kBytes
   grid      :       6321. kBytes
   one-center:         93. kBytes
   wavefun   :     122572. kBytes
 
     INWAV:  cpu time    0.0000: real time    0.0000
 Broyden mixing: mesh for mixing (old mesh)
   NGX = 17   NGY = 17   NGZ = 93
  (NGX  = 56   NGY  = 56   NGZ  =288)
  gives a total of  26877 points

 initial charge density was supplied:
 charge density of overlapping atoms calculated
 number of electron     168.0000000 magnetization 
 keeping initial charge density in first step


--------------------------------------------------------------------------------------------------------


 Maximum index for non-local projection operator          541
 Maximum index for augmentation-charges          718 (set IRDMAX)


--------------------------------------------------------------------------------------------------------


 First call to EWALD:  gamma=   0.189
 Maximum number of real-space cells 5x 5x 1
 Maximum number of reciprocal cells 2x 2x 8

    FEWALD:  cpu time    0.0015: real time    0.0015


--------------------------------------- Iteration      1(   1)  ---------------------------------------


    POTLOK:  cpu time    0.0261: real time    0.0322
    SETDIJ:  cpu time    0.0035: real time    0.0035
     EDDAV:  cpu time   14.2870: real time   14.2875
       DOS:  cpu time    0.0076: real time    0.0076
    --------------------------------------------
      LOOP:  cpu time   14.3241: real time   14.3307

 eigenvalue-minimisations  : 19288
 total energy-change (2. order) : 0.1028898E+04  (-0.5831693E+04)
 number of electron     168.0000000 magnetization 
 augmentation part      168.0000000 magnetization 

 Free energy of the ion-electron system (eV)
  ---------------------------------------------------
  alpha Z        PSCENC =       324.87461712
  Ewald energy   TEWEN  =    101301.29319661
  -Hartree energ DENC   =   -113589.76797020
  -exchange      EXHF   =         0.00000000
  -V(xc)+E(xc)   XCENC  =        69.10708986
  PAW double counting   =     11288.27476651   -10829.50941267
  entropy T*S    EENTRO =        -0.00257460
  eigenvalues    EBANDS =       573.99056941
  atomic energy  EATOM  =     11890.63736546
  Solvation  Ediel_sol  =         0.00000000
  ---------------------------------------------------
  free energy    TOTEN  =      1028.89764749 eV

  energy without entropy =     1028.90022209  energy(sigma->0) =     1028.89850569


--------------------------------------------------------------------------------------------------------




--------------------------------------- Iteration      1(   2)  ---------------------------------------


     EDDAV:  cpu time   17.0080: real time   17.0087
       DOS:  cpu time    0.0083: real time    0.0083
    --------------------------------------------
      LOOP:  cpu time   17.0163: real time   17.0170

 eigenvalue-minimisations  : 24136
 total energy-change (2. order) :-0.1059349E+04  (-0.9862125E+03)
 number of electron     168.0000000 magnetization 
 augmentation part      168.0000000 magnetization 

 Free energy of the ion-electron system (eV)
  ---------------------------------------------------
  alpha Z        PSCENC =       324.87461712
  Ewald energy   TEWEN  =    101301.29319661
  -Hartree energ DENC   =   -113589.76797020
  -exchange      EXHF   =         0.00000000
  -V(xc)+E(xc)   XCENC  =        69.10708986
  PAW double counting   =     11288.27476651   -10829.50941267
  entropy T*S    EENTRO =         0.00115625
  eigenvalues    EBANDS =      -485.36214016
  atomic energy  EATOM  =     11890.63736546
  Solvation  Ediel_sol  =         0.00000000
  ---------------------------------------------------
  free energy    TOTEN  =       -30.45133123 eV

  energy without entropy =      -30.45248748  energy(sigma->0) =      -30.45171665


--------------------------------------------------------------------------------------------------------




--------------------------------------- Iteration      1(   3)  ---------------------------------------


     EDDAV:  cpu time   16.3349: real time   16.3370
       DOS:  cpu time    0.0087: real time    0.0087
    --------------------------------------------
      LOOP:  cpu time   16.3436: real time   16.3456

 eigenvalue-minimisations  : 22960
 total energy-change (2. order) :-0.9092027E+02  (-0.8412387E+02)
 number of electron     168.0000000 magnetization 
 augmentation part      168.0000000 magnetization 

 Free energy of the ion-electron system (eV)
  ---------------------------------------------------
  alpha Z        PSCENC =       324.87461712
  Ewald energy   TEWEN  =    101301.29319661
  -Hartree energ DENC   =   -113589.76797020
  -exchange      EXHF   =         0.00000000
  -V(xc)+E(xc)   XCENC  =        69.10708986
  PAW double counting   =     11288.27476651   -10829.50941267
  entropy T*S    EENTRO =        -0.01924234
  eigenvalues    EBANDS =      -576.26200912
  atomic energy  EATOM  =     11890.63736546
  Solvation  Ediel_sol  =         0.00000000
  ---------------------------------------------------
  free energy    TOTEN  =      -121.37159878 eV

  energy without entropy =     -121.35235644  energy(sigma->0) =     -121.36518467


--------------------------------------------------------------------------------------------------------




--------------------------------------- Iteration      1(   4)  ---------------------------------------


     EDDAV:  cpu time   17.7477: real time   17.7486
       DOS:  cpu time    0.0090: real time    0.0090
    --------------------------------------------
      LOOP:  cpu time   17.7567: real time   17.7576

 eigenvalue-minimisations  : 25568
 total energy-change (2. order) :-0.4381043E+01  (-0.4180914E+01)
 number of electron     168.0000000 magnetization 
 augmentation part      168.0000000 magnetization 

 Free energy of the ion-electron system (eV)
  ---------------------------------------------------
  alpha Z        PSCENC =       324.87461712
  Ewald energy   TEWEN  =    101301.29319661
  -Hartree energ DENC   =   -113589.76797020
  -exchange      EXHF   =         0.00000000
  -V(xc)+E(xc)   XCENC  =        69.10708986
  PAW double counting   =     11288.27476651   -10829.50941267
  entropy T*S    EENTRO =        -0.02332842
  eigenvalues    EBANDS =      -580.63896608
  atomic energy  EATOM  =     11890.63736546
  Solvation  Ediel_sol  =         0.00000000
  ---------------------------------------------------
  free energy    TOTEN  =      -125.75264182 eV

  energy without entropy =     -125.72931340  energy(sigma->0) =     -125.74486568


--------------------------------------------------------------------------------------------------------




--------------------------------------- Iteration      1(   5)  ---------------------------------------


     EDDAV:  cpu time   18.3687: real time   18.3741
       DOS:  cpu time    0.0090: real time    0.0090
    CHARGE:  cpu time    0.7185: real time    0.7185
    MIXING:  cpu time    0.0011: real time    0.0011
    --------------------------------------------
      LOOP:  cpu time   19.0973: real time   19.1027

 eigenvalue-minimisations  : 26648
 total energy-change (2. order) :-0.1388213E+00  (-0.1375039E+00)
 number of electron     168.0000025 magnetization 
 augmentation part       46.8004366 magnetization 

 Broyden mixing:
  rms(total) = 0.43098E+01    rms(broyden)= 0.43095E+01
  rms(prec ) = 0.43601E+01
  weight for this iteration     100.00

 Free energy of the ion-electron system (eV)
  ---------------------------------------------------
  alpha Z        PSCENC =       324.87461712
  Ewald energy   TEWEN  =    101301.29319661
  -Hartree energ DENC   =   -113589.76797020
  -exchange      EXHF   =         0.00000000
  -V(xc)+E(xc)   XCENC  =        69.10708986
  PAW double counting   =     11288.27476651   -10829.50941267
  entropy T*S    EENTRO =        -0.02351781
  eigenvalues    EBANDS =      -580.77759803
  atomic energy  EATOM  =     11890.63736546
  Solvation  Ediel_sol  =         0.00000000
  ---------------------------------------------------
  free energy    TOTEN  =      -125.89146315 eV

  energy without entropy =     -125.86794534  energy(sigma->0) =     -125.88362388


--------------------------------------------------------------------------------------------------------




--------------------------------------- Iteration      1(   6)  ---------------------------------------


    POTLOK:  cpu time    0.0239: real time    0.0242
    SETDIJ:  cpu time    0.0034: real time    0.0034
     EDDAV:  cpu time   16.3830: real time   16.3834
       DOS:  cpu time    0.0100: real time    0.0100
    CHARGE:  cpu time    0.7168: real time    0.7168
    MIXING:  cpu time    0.0012: real time    0.0012
    --------------------------------------------
      LOOP:  cpu time   17.1382: real time   17.1389

 eigenvalue-minimisations  : 23036
 total energy-change (2. order) : 0.7565825E+01  (-0.3756144E+01)
 number of electron     168.0000017 magnetization 
 augmentation part       49.8640491 magnetization 

 Broyden mixing:
  rms(total) = 0.32214E+01    rms(broyden)= 0.32212E+01
  rms(prec ) = 0.33149E+01
  weight for this iteration     100.00

 eigenvalues of (default mixing * dielectric matrix)
  average eigenvalue GAMMA=   1.1454
  1.1454

 Free energy of the ion-electron system (eV)
  ---------------------------------------------------
  alpha Z        PSCENC =       324.87461712
  Ewald energy   TEWEN  =    101301.29319661
  -Hartree energ DENC   =   -113351.41315568
  -exchange      EXHF   =         0.00000000
  -V(xc)+E(xc)   XCENC  =        65.87710782
  PAW double counting   =     12533.50447898   -12099.02785180
  entropy T*S    EENTRO =        -0.01273055
  eigenvalues    EBANDS =      -784.05866569
  atomic energy  EATOM  =     11890.63736546
  Solvation  Ediel_sol  =         0.00000000
  ---------------------------------------------------
  free energy    TOTEN  =      -118.32563774 eV

  energy without entropy =     -118.31290719  energy(sigma->0) =     -118.32139422


--------------------------------------------------------------------------------------------------------




--------------------------------------- Iteration      1(   7)  ---------------------------------------


    POTLOK:  cpu time    0.0221: real time    0.0239
    SETDIJ:  cpu time    0.0034: real time    0.0034
     EDDAV:  cpu time   17.6446: real time   17.6451
       DOS:  cpu time    0.0094: real time    0.0094
    CHARGE:  cpu time    0.7274: real time    0.7274
    MIXING:  cpu time    0.0012: real time    0.0012
    --------------------------------------------
      LOOP:  cpu time   18.4082: real time   18.4104

 eigenvalue-minimisations  : 25352
 total energy-change (2. order) :-0.1861317E+02  (-0.7929407E+01)
 number of electron     168.0000029 magnetization 
 augmentation part       49.1610683 magnetization 

 Broyden mixing:
  rms(total) = 0.42408E+01    rms(broyden)= 0.42406E+01
  rms(prec ) = 0.46900E+01
  weight for this iteration     100.00

 eigenvalues of (default mixing * dielectric matrix)
  average eigenvalue GAMMA=   1.1009
  1.9268  0.2750

 Free energy of the ion-electron system (eV)
  ---------------------------------------------------
  alpha Z        PSCENC =       324.87461712
  Ewald energy   TEWEN  =    101301.29319661
  -Hartree energ DENC   =   -113541.87151620
  -exchange      EXHF   =         0.00000000
  -V(xc)+E(xc)   XCENC  =        65.44635022
  PAW double counting   =     13519.23894611   -13093.74772588
  entropy T*S    EENTRO =        -0.00684441
  eigenvalues    EBANDS =      -602.80319298
  atomic energy  EATOM  =     11890.63736546
  Solvation  Ediel_sol  =         0.00000000
  ---------------------------------------------------
  free energy    TOTEN  =      -136.93880395 eV

  energy without entropy =     -136.93195954  energy(sigma->0) =     -136.93652248


--------------------------------------------------------------------------------------------------------




--------------------------------------- Iteration      1(   8)  ---------------------------------------


    POTLOK:  cpu time    0.0232: real time    0.0235
    SETDIJ:  cpu time    0.0034: real time    0.0034
     EDDAV:  cpu time   18.7061: real time   18.7066
       DOS:  cpu time    0.0101: real time    0.0101
    CHARGE:  cpu time    0.7206: real time    0.7207
    MIXING:  cpu time    0.0012: real time    0.0012
    --------------------------------------------
      LOOP:  cpu time   19.4646: real time   19.4654

 eigenvalue-minimisations  : 27272
 total energy-change (2. order) : 0.2006234E+02  (-0.4184006E+01)
 number of electron     168.0000028 magnetization 
 augmentation part       50.6711619 magnetization 

 Broyden mixing:
  rms(total) = 0.11487E+01    rms(broyden)= 0.11484E+01
  rms(prec ) = 0.12120E+01
  weight for this iteration     100.00

 eigenvalues of (default mixing * dielectric matrix)
  average eigenvalue GAMMA=   1.0148
  2.0136  0.7565  0.2742

 Free energy of the ion-electron system (eV)
  ---------------------------------------------------
  alpha Z        PSCENC =       324.87461712
  Ewald energy   TEWEN  =    101301.29319661
  -Hartree energ DENC   =   -113389.26494123
  -exchange      EXHF   =         0.00000000
  -V(xc)+E(xc)   XCENC  =        64.93643584
  PAW double counting   =     14506.05912915   -14090.85651308
  entropy T*S    EENTRO =        -0.01509523
  eigenvalues    EBANDS =      -724.54065589
  atomic energy  EATOM  =     11890.63736546
  Solvation  Ediel_sol  =         0.00000000
[...]
     21      -5.1687      2.00000
     22      -5.0963      2.00000
     23      -5.0312      2.00000
     24      -4.8569      2.00000
     25      -4.8057      2.00000
     26      -4.7614      2.00000
     27      -4.7178      2.00000
     28      -4.6611      2.00000
     29      -4.6085      2.00000
     30      -4.5694      2.00000
     31      -4.5325      2.00000
     32      -4.3494      2.00000
     33      -4.2662      2.00000
     34      -4.1739      2.00000
     35      -4.1134      2.00000
     36      -4.0829      2.00000
     37      -3.9957      2.00000
     38      -3.9497      2.00000
     39      -3.8968      2.00000
     40      -3.8376      2.00000
     41      -3.7085      2.00000
     42      -3.6484      2.00000
     43      -3.6102      2.00000
     44      -3.5672      2.00000
     45      -3.5061      2.00000
     46      -3.4458      2.00000
     47      -3.4046      2.00000
     48      -3.3303      2.00000
     49      -3.2872      2.00000
     50      -3.2168      2.00000
     51      -3.1458      2.00000
     52      -3.0844      2.00000
     53      -3.0526      2.00000
     54      -2.9898      2.00000
     55      -2.9315      2.00000
     56      -2.8252      2.00000
     57      -2.7271      2.00000
     58      -2.5775      2.00000
     59      -2.5320      2.00000
     60      -2.3890      2.00000
     61      -2.3229      2.00000
     62      -2.2859      2.00000
     63      -2.2085      2.00000
     64      -2.1886      2.00000
     65      -2.1173      2.00000
     66      -1.9880      2.00000
     67      -1.9086      2.00000
     68      -1.8575      2.00000
     69      -1.7571      2.00000
     70      -1.7217      2.00000
     71      -1.6784      2.00000
     72      -1.5485      2.00000
     73      -1.5078      2.00000
     74      -1.4752      2.00000
     75      -1.4066      2.00000
     76      -1.2588      2.00000
     77      -1.2378      2.00000
     78      -1.0846      2.00000
     79      -1.0196      2.00001
     80      -0.9152      2.00021
     81      -0.8435      2.00133
     82      -0.6470      2.04261
     83      -0.5785      2.06951
     84      -0.4809      1.98410
     85      -0.3531      1.28138
     86      -0.3246      1.04451
     87      -0.2317      0.33130
     88      -0.1512      0.00044
     89      -0.0743     -0.07092
     90       0.6189     -0.00000
     91       0.8980     -0.00000
     92       1.1221     -0.00000
     93       1.2357     -0.00000
     94       1.9553     -0.00000
     95       2.7313     -0.00000
     96       2.8413     -0.00000
     97       3.1129     -0.00000
     98       3.7321     -0.00000
     99       4.0189     -0.00000
    100       4.5059     -0.00000

 k-point    96 :      -0.4375    0.1250    0.0000
  band No.  band energies     occupation 
      1     -12.4888      2.00000
      2      -7.8633      2.00000
      3      -7.7280      2.00000
      4      -6.9070      2.00000
      5      -6.8227      2.00000
      6      -6.3737      2.00000
      7      -6.2310      2.00000
      8      -6.1737      2.00000
      9      -6.0596      2.00000
     10      -5.9259      2.00000
     11      -5.8661      2.00000
     12      -5.8180      2.00000
     13      -5.7415      2.00000
     14      -5.7150      2.00000
     15      -5.6929      2.00000
     16      -5.5958      2.00000
     17      -5.4731      2.00000
     18      -5.4532      2.00000
     19      -5.3564      2.00000
     20      -5.3036      2.00000
     21      -5.2387      2.00000
     22      -5.1989      2.00000
     23      -5.0112      2.00000
     24      -4.9214      2.00000
     25      -4.8147      2.00000
     26      -4.7794      2.00000
     27      -4.6955      2.00000
     28      -4.6755      2.00000
     29      -4.5892      2.00000
     30      -4.5460      2.00000
     31      -4.5171      2.00000
     32      -4.3709      2.00000
     33      -4.2556      2.00000
     34      -4.1735      2.00000
     35      -4.1210      2.00000
     36      -4.1006      2.00000
     37      -4.0190      2.00000
     38      -3.9707      2.00000
     39      -3.8865      2.00000
     40      -3.8539      2.00000
     41      -3.8136      2.00000
     42      -3.7415      2.00000
     43      -3.6660      2.00000
     44      -3.6351      2.00000
     45      -3.5753      2.00000
     46      -3.5169      2.00000
     47      -3.4025      2.00000
     48      -3.2922      2.00000
     49      -3.2649      2.00000
     50      -3.1860      2.00000
     51      -3.1397      2.00000
     52      -3.1027      2.00000
     53      -3.0349      2.00000
     54      -2.9649      2.00000
     55      -2.8998      2.00000
     56      -2.8265      2.00000
     57      -2.6908      2.00000
     58      -2.6572      2.00000
     59      -2.5230      2.00000
     60      -2.4052      2.00000
     61      -2.3689      2.00000
     62      -2.3228      2.00000
     63      -2.2283      2.00000
     64      -2.1534      2.00000
     65      -2.0686      2.00000
     66      -1.9616      2.00000
     67      -1.8586      2.00000
     68      -1.8375      2.00000
     69      -1.7259      2.00000
     70      -1.6827      2.00000
     71      -1.6208      2.00000
     72      -1.6005      2.00000
     73      -1.5342      2.00000
     74      -1.4673      2.00000
     75      -1.4082      2.00000
     76      -1.2449      2.00000
     77      -1.1089      2.00000
     78      -1.0655      2.00000
     79      -1.0303      2.00001
     80      -0.8715      2.00067
     81      -0.7589      2.00801
     82      -0.7263      2.01427
     83      -0.5922      2.06600
     84      -0.4542      1.90115
     85      -0.3594      1.33183
     86      -0.3024      0.85667
     87      -0.2223      0.27631
     88      -0.0288     -0.05938
     89       0.0598     -0.02206
     90       0.6067     -0.00000
     91       0.8449     -0.00000
     92       1.1780     -0.00000
     93       1.3039     -0.00000
     94       1.8389     -0.00000
     95       2.4075     -0.00000
     96       2.7854     -0.00000
     97       3.3846     -0.00000
     98       3.7033     -0.00000
     99       4.1094     -0.00000
    100       4.3893     -0.00000


--------------------------------------------------------------------------------------------------------


 soft charge-density along one line, spin component           1
         0         1         2         3         4         5         6         7         8         9
 total charge-density along one line
 
 pseudopotential strength for first ion, spin component:           1
 -7.945   0.002  -0.004  -0.011   0.001  -8.094   0.002  -0.003
  0.002  -7.921   0.001   0.004  -0.007   0.002  -8.070   0.001
 -0.004   0.001  -7.932  -0.004   0.002  -0.003   0.001  -8.081
 -0.011   0.004  -0.004  -7.925   0.002  -0.011   0.004  -0.003
  0.001  -0.007   0.002   0.002  -7.943   0.001  -0.007   0.002
 -8.094   0.002  -0.003  -0.011   0.001  -8.226   0.002  -0.003
  0.002  -8.070   0.001   0.004  -0.007   0.002  -8.203   0.001
 -0.003   0.001  -8.081  -0.003   0.002  -0.003   0.001  -8.214
 -0.011   0.004  -0.003  -8.074   0.002  -0.011   0.003  -0.003
  0.001  -0.007   0.002   0.002  -8.092   0.001  -0.007   0.002
 -0.001  -0.000  -0.004   0.001   0.001  -0.001  -0.000  -0.004
 -0.001  -0.000  -0.006   0.002   0.001  -0.001  -0.001  -0.006
  0.001   0.001   0.000   0.000   0.000   0.001   0.000   0.000
  0.000  -0.000   0.001   0.001  -0.000   0.000  -0.000   0.000
 -0.000   0.000  -0.000   0.000   0.001  -0.000   0.000  -0.000
  0.001   0.001   0.000   0.000   0.000   0.001   0.000   0.000
  0.000  -0.001   0.000   0.001  -0.000   0.000  -0.001   0.000
 -0.000   0.000  -0.000   0.000   0.001  -0.000   0.000  -0.000
 total augmentation occupancy for first ion, spin component:           1
  5.967   0.253  -0.034  -0.077   0.113  -3.984  -0.224   0.019  -0.075  -0.090  -0.035   0.008   0.005  -0.015  -0.003   0.001
  0.253   6.087   0.000   0.230   0.228  -0.224  -3.895   0.028  -0.208  -0.340   0.081  -0.013   0.010   0.033  -0.014  -0.000
 -0.034   0.000   6.241  -0.032   0.031   0.019   0.028  -4.258  -0.029  -0.021   0.145  -0.024   0.023   0.035  -0.044   0.000
 -0.077   0.230  -0.032   5.839   0.236  -0.074  -0.208  -0.029  -3.674  -0.212  -0.157   0.027  -0.013  -0.059   0.029   0.000
  0.113   0.228   0.031   0.236   6.107  -0.090  -0.341  -0.021  -0.211  -4.096   0.019  -0.006   0.004   0.013   0.003   0.001
 -3.984  -0.224   0.019  -0.074  -0.090   3.904   0.202  -0.008   0.190   0.073   0.041  -0.016  -0.008   0.013   0.004  -0.000
 -0.224  -3.895   0.028  -0.208  -0.341   0.202   3.650  -0.048   0.191   0.427  -0.084   0.022  -0.010  -0.030   0.012   0.000
  0.019   0.028  -4.258  -0.029  -0.021  -0.008  -0.048   4.176   0.075   0.014  -0.140   0.023  -0.023  -0.031   0.042   0.000
 -0.075  -0.208  -0.029  -3.674  -0.211   0.190   0.191   0.075   3.448   0.193   0.158  -0.040   0.011   0.053  -0.027  -0.000
 -0.090  -0.340  -0.021  -0.212  -4.096   0.073   0.427   0.014   0.193   3.995  -0.022   0.010  -0.006  -0.011  -0.007  -0.000
 -0.035   0.081   0.145  -0.157   0.019   0.041  -0.084  -0.140   0.158  -0.022   2.982  -0.803   0.001  -0.012  -0.002  -0.000
  0.008  -0.013  -0.024   0.027  -0.006  -0.016   0.022   0.023  -0.040   0.010  -0.803   0.243   0.002   0.004  -0.004  -0.000
  0.005   0.010   0.023  -0.013   0.004  -0.008  -0.010  -0.023   0.011  -0.006   0.001   0.002   0.249  -0.003   0.000  -0.008
 -0.015   0.033   0.035  -0.059   0.013   0.013  -0.030  -0.031   0.053  -0.011  -0.012   0.004  -0.003   0.233   0.007   0.000
 -0.003  -0.014  -0.044   0.029   0.003   0.004   0.012   0.042  -0.027  -0.007  -0.002  -0.004   0.000   0.007   0.249  -0.000
  0.001  -0.000   0.000   0.000   0.001  -0.000   0.000   0.000  -0.000  -0.000  -0.000  -0.000  -0.008   0.000  -0.000   0.000
  0.000  -0.001  -0.001   0.002  -0.000  -0.000   0.001   0.001  -0.001   0.000   0.001  -0.000   0.000  -0.008  -0.000  -0.000
 -0.001   0.000  -0.000  -0.001   0.001   0.000  -0.000  -0.001   0.001  -0.000   0.000   0.000  -0.000  -0.000  -0.008   0.000


------------------------ aborting loop because EDIFF is reached ----------------------------------------



 DIPCOR: dipole corrections for dipol
 direction  3 min pos    19,
 dipolmoment           0.000000      0.000000     -0.235309 electrons x Angstroem
 Tr[quadrupol]      -935.613534

 energy correction for charged system         0.000000 eV
 dipol+quadrupol energy correction            0.006079 eV
 added-field ion interaction          0.000000 eV  (added to PSCEN)

 
  *************** adding dipol energy to TOTEN NOW **************** 
    CHARGE:  cpu time    0.7206: real time    0.7206
    FORLOC:  cpu time    0.0072: real time    0.0072
    FORNL :  cpu time    3.2251: real time    3.2251
    STRESS:  cpu time    9.6930: real time    9.6936
    FORCOR:  cpu time    0.0287: real time    0.0287
    FORHAR:  cpu time    0.0120: real time    0.0120
    MIXING:  cpu time    0.0041: real time    0.0041
    OFIELD:  cpu time    0.0000: real time    0.0000

  FORCE on cell =-STRESS in cart. coord.  units (eV):
  Direction    XX          YY          ZZ          XY          YZ          ZX
  --------------------------------------------------------------------------------------
  Alpha Z   324.87462   324.87462   324.87462
  Ewald  110162.73704110178.37304************    18.13751     6.28964    -3.47760
  Hartree112666.54904112683.04738************    15.63606     0.85760     0.33940
  E(xc)    -737.13318  -737.15099  -741.17958    -0.00249     0.06724    -0.06149
  Local  ************************227981.77911   -35.06545    -4.53307     0.98820
  n-local    46.64622    46.30952    38.94516    -0.13362     0.39663    -0.48026
  augment   836.04661   836.86742   856.32409     0.47118    -1.02098     1.04532
  Kinetic  2385.64613  2387.70215  2440.12666     1.29382    -2.23177     1.98373
  Fock        0.00000     0.00000     0.00000     0.00000     0.00000     0.00000
  -------------------------------------------------------------------------------------
  Total     -11.65836   -11.33404    -1.20703     0.33701    -0.17472     0.33730
  in kB     -22.66488   -22.03438    -2.34656     0.65518    -0.33967     0.65574
  external pressure =      -15.68 kB  Pullay stress =        0.00 kB


 VOLUME and BASIS-vectors are now :
 -----------------------------------------------------------------------------
  energy-cutoff  :      350.00
  volume of cell :      824.13
      direct lattice vectors                 reciprocal lattice vectors
     5.557859300  0.000000000  0.000000000     0.179925390 -0.103879972  0.000000000
     2.778929650  4.813247345  0.000000000     0.000000000  0.207759944  0.000000000
     0.000000000  0.000000000 30.806959674     0.000000000  0.000000000  0.032460198

  length of vectors
     5.557859300  5.557859300 30.806959674     0.207759944  0.207759944  0.032460198


 FORCES acting on ions
    electron-ion (+dipol)            ewald-force                    non-local-force                 convergence-correction
 -----------------------------------------------------------------------------------------------
   0.290E+01 -.182E+01 -.818E+03   -.324E+01 0.200E+01 0.818E+03   0.334E+00 -.169E+00 0.350E-01   -.364E-03 0.199E-03 -.101E-01
   -.691E-01 -.936E+00 -.134E+04   0.491E-01 0.102E+01 0.134E+04   0.741E-01 -.691E-01 -.151E+01   0.474E-05 -.696E-05 0.300E-03
   -.176E+01 0.104E+01 -.365E+03   0.192E+01 -.101E+01 0.368E+03   -.198E+00 -.610E-01 -.307E+01   -.107E-04 0.198E-06 0.117E-04
   -.183E+02 -.394E+02 -.346E+03   0.206E+02 0.441E+02 0.348E+03   -.223E+01 -.470E+01 -.189E+01   0.420E-04 0.726E-04 0.156E-03
   0.464E+02 0.210E+01 -.344E+03   -.516E+02 -.248E+01 0.346E+03   0.527E+01 0.385E+00 -.155E+01   -.604E-04 -.201E-04 0.163E-03
   -.262E+02 0.379E+02 -.345E+03   0.291E+02 -.422E+02 0.347E+03   -.288E+01 0.436E+01 -.172E+01   0.231E-04 -.519E-04 0.170E-03
   -.322E+01 0.185E+01 0.266E+04   0.312E+01 -.179E+01 -.266E+04   0.654E-01 -.643E-01 -.133E+00   -.103E-03 -.223E-03 -.462E-02
   0.244E+01 0.401E+01 -.257E+04   -.216E+01 -.440E+01 0.257E+04   -.287E+00 0.260E+00 0.147E+01   0.855E-04 0.548E-04 -.375E-02
   0.125E+01 0.306E+01 -.257E+04   -.108E+01 -.299E+01 0.258E+04   -.148E+00 -.661E-01 -.608E+01   -.727E-04 -.401E-04 -.342E-02
   -.835E+00 -.500E+01 -.257E+04   0.125E+01 0.493E+01 0.257E+04   -.293E+00 0.120E+00 0.144E+01   -.808E-04 -.544E-04 -.364E-02
   -.215E+01 -.304E+01 -.261E+04   0.203E+01 0.312E+01 0.262E+04   0.708E-01 -.563E-01 -.526E+01   0.819E-04 0.912E-05 -.292E-02
   0.276E+01 -.160E+01 0.295E+04   -.260E+01 0.153E+01 -.295E+04   -.912E-01 0.101E+00 -.760E+00   0.143E-03 -.935E-04 -.504E-02
   0.478E+00 0.246E+01 -.741E+03   -.102E+00 -.261E+01 0.740E+03   -.410E+00 0.206E+00 0.214E-01   0.521E-03 -.598E-04 -.873E-02
   -.375E+01 -.295E+01 0.116E+04   0.388E+01 0.309E+01 -.116E+04   -.422E-01 -.251E-01 0.137E+00   -.119E-03 0.344E-03 -.100E-01
   0.379E+01 0.223E+01 0.113E+04   -.404E+01 -.228E+01 -.113E+04   0.953E-01 -.333E-01 -.755E+00   0.113E-03 0.203E-03 -.970E-02
   0.427E+01 0.262E+01 0.116E+04   -.445E+01 -.274E+01 -.116E+04   0.267E-01 0.539E-01 -.903E-02   -.137E-03 -.215E-03 -.102E-01
   -.445E+01 -.188E+01 0.114E+04   0.453E+01 0.204E+01 -.114E+04   0.639E-01 -.621E-01 -.735E+00   0.106E-03 -.328E-03 -.101E-01
   -.335E+01 0.222E+01 0.295E+04   0.317E+01 -.205E+01 -.295E+04   0.227E+00 -.170E+00 -.762E+00   0.134E-03 0.245E-03 -.478E-02
   0.276E+01 -.122E+01 0.295E+04   -.267E+01 0.120E+01 -.295E+04   -.128E+00 -.381E-01 -.518E+00   -.130E-03 0.807E-04 -.481E-02
   -.208E+00 0.189E-01 -.718E+03   -.163E+00 0.181E+00 0.718E+03   0.391E+00 -.222E+00 0.202E+00   -.517E-03 0.307E-03 -.901E-02
   -.222E+01 -.159E+01 -.737E+03   0.250E+01 0.135E+01 0.737E+03   -.357E+00 0.254E+00 -.242E-01   0.317E-03 -.423E-03 -.873E-02
 -----------------------------------------------------------------------------------------------
   0.438E+00 -.728E-02 0.216E+02   -.973E-13 -.355E-14 0.000E+00   -.441E+00 0.803E-02 -.215E+02   -.249E-04 -.932E-06 -.109E+00
 
 
 POSITION                                       TOTAL-FORCE (eV/Angst)
 -----------------------------------------------------------------------------------
      4.19422      3.96861     16.66749        -0.009619      0.006994      0.120963
      2.78612      4.72225     21.26234         0.054262      0.010237     -0.013541
      1.55266      2.36091     20.58138        -0.033602     -0.027741      0.046122
      6.00804      0.83943     21.64090         0.006465     -0.000624     -0.012894
      7.29274      4.64377     21.57454        -0.011857     -0.000159     -0.028249
      3.35929      3.85093     21.61028         0.016636     -0.008929      0.005472
      2.76881      0.00172     11.99720        -0.039539     -0.007862      1.189450
      4.24691      2.33295     18.92018        -0.003084     -0.129717      0.336844
      1.46336      2.33845     19.03225         0.025585      0.007678     -0.097404
      5.63224      4.74068     18.91945         0.121095      0.052204      0.305560
      2.84821      4.74746     19.19061        -0.055026      0.021107      0.064244
      2.78655      4.80608     12.00495         0.063042      0.034396     -0.062937
      5.60356      1.54629     16.66127        -0.033126      0.056274     -0.196346
      5.57260      3.18418     14.31588         0.087255      0.116440     -0.378457
      2.79264      3.18492     14.36312        -0.152468     -0.084748     -0.189943
      4.18380      0.77629     14.30750        -0.145768     -0.068022     -0.259289
      1.40169      0.77777     14.36426         0.150702      0.096196     -0.510200
      4.15970      2.40853     12.00064         0.046340     -0.003333     -0.102299
      1.39596      2.39995     12.00386        -0.034302     -0.055979     -0.271777
      2.81759      1.55583     16.63805         0.019779     -0.021274      0.061690
      6.99544      3.96318     16.65591        -0.072769      0.006864     -0.007009
 -----------------------------------------------------------------------------------
    total drift:                               -0.003809      0.000751     -0.006236


--------------------------------------------------------------------------------------------------------



  FREE ENERGIE OF THE ION-ELECTRON SYSTEM (eV)
  ---------------------------------------------------
  free  energy   TOTEN  =      -115.53491614 eV

  energy  without entropy=     -115.50910492  energy(sigma->0) =     -115.52631240
 


--------------------------------------------------------------------------------------------------------


    POTLOK:  cpu time    0.0266: real time    0.0266


--------------------------------------------------------------------------------------------------------


     LOOP+:  cpu time  561.4647: real time  561.5606
    4ORBIT:  cpu time    0.0000: real time    0.0000

 total amount of memory used by VASP MPI-rank0   164314. kBytes
=======================================================================

   base      :      30000. kBytes
   nonlr-proj:       2361. kBytes
   fftplans  :       2967. kBytes
   grid      :       6321. kBytes
   one-center:         93. kBytes
   wavefun   :     122572. kBytes
 
  
  
 General timing and accounting informations for this job:
 ========================================================
  
                  Total CPU time used (sec):      569.180
                            User time (sec):      566.975
                          System time (sec):        2.205
                         Elapsed time (sec):      569.389
  
                   Maximum memory used (kb):      211844.
                   Average memory used (kb):           0.
  
                          Minor page faults:        68780
                          Major page faults:            0
                 Voluntary context switches:         1098
