 vasp.5.4.4.18Apr17-6-g9f103f2a35 (build Apr 28 2017 10:53:45) complex          
  
 executed on             LinuxIFC date 2019.07.18  18:00:23
 running on   16 total cores
 distrk:  each k-point on   16 cores,    1 groups
 distr:  one band on NCORES_PER_BAND=   4 cores,    4 groups


--------------------------------------------------------------------------------------------------------


 INCAR:
 POTCAR:    PAW_PBE Au 04Oct2007                  
 POTCAR:    PAW_PBE C 08Apr2002                   
 POTCAR:    PAW_PBE H 15Jun2001                   
 POTCAR:    PAW_PBE Ir 06Sep2000                  
 POTCAR:    PAW_PBE Pt 04Feb2005                  
 POTCAR:    PAW_PBE Au 04Oct2007                  
   VRHFIN =Au: s1d10                                                            
   LEXCH  = PE                                                                  
   EATOM  =   926.0867 eV,   68.0654 Ry                                         
                                                                                
   TITEL  = PAW_PBE Au 04Oct2007                                                
   LULTRA =        F    use ultrasoft PP ?                                      
   IUNSCR =        1    unscreen: 0-lin 1-nonlin 2-no                           
   RPACOR =    2.330    partial core radius                                     
   POMASS =  196.966; ZVAL   =   11.000    mass and valenz                      
   RCORE  =    2.500    outmost cutoff radius                                   
   RWIGS  =    2.840; RWIGS  =    1.503    wigner-seitz radius (au A)           
   ENMAX  =  229.943; ENMIN  =  172.457 eV                                      
   ICORE  =        3    local potential                                         
   LCOR   =        T    correct aug charges                                     
   LPAW   =        T    paw PP                                                  
   EAUG   =  356.670                                                            
   DEXC   =    0.000                                                            
   RMAX   =    2.562    core radius for proj-oper                               
   RAUG   =    1.300    factor for augmentation sphere                          
   RDEP   =    2.598    radius for radial grids                                 
   RDEPT  =    2.193    core radius for aug-charge                              
                                                                                
   Atomic configuration                                                         
   16 entries                                                                   
     n  l   j            E        occ.                                          
     1  0  0.50    -80748.5001   2.0000                                         
     2  0  0.50    -14244.7466   2.0000                                         
     2  1  1.50    -12310.9591   6.0000                                         
     3  0  0.50     -3362.1768   2.0000                                         
     3  1  1.50     -2801.5463   6.0000                                         
     3  2  2.50     -2203.8206  10.0000                                         
     4  0  0.50      -729.8168   2.0000                                         
     4  1  1.50      -546.0527   6.0000                                         
     4  2  2.50      -325.7302  10.0000                                         
     4  3  3.50       -81.1472  14.0000                                         
     5  0  0.50      -108.3201   2.0000                                         
     5  1  1.50       -59.7479   6.0000                                         
     5  2  2.50        -6.8783  10.0000                                         
     6  0  0.50        -5.7602   1.0000                                         
     6  1  1.50        -6.8029   0.0000                                         
     5  3  2.50        -1.3606   0.0000                                         
   Description                                                                  
     l       E           TYP  RCUT    TYP  RCUT                                 
     2     -6.8782861     23  2.500                                             
     2     -8.2388687     23  2.500                                             
     0     -5.7601759     23  2.500                                             
     0     -0.8493231     23  2.500                                             
     1     -2.7211652     23  2.500                                             
     1     27.2116520     23  2.500                                             
     3     -1.3605826     23  2.500                                             
  local pseudopotential read in
  partial core-charges read in
  partial kinetic energy density read in
  atomic valenz-charges read in
  non local Contribution for L=           2  read in
    real space projection operators read in
  non local Contribution for L=           2  read in
    real space projection operators read in
  non local Contribution for L=           0  read in
    real space projection operators read in
  non local Contribution for L=           0  read in
    real space projection operators read in
  non local Contribution for L=           1  read in
    real space projection operators read in
  non local Contribution for L=           1  read in
    real space projection operators read in
    PAW grid and wavefunctions read in
 
   number of l-projection  operators is LMAX  =           6
   number of lm-projection operators is LMMAX =          18
 
 POTCAR:    PAW_PBE C 08Apr2002                   
   VRHFIN =C: s2p2                                                              
   LEXCH  = PE                                                                  
   EATOM  =   147.1560 eV,   10.8157 Ry                                         
                                                                                
   TITEL  = PAW_PBE C 08Apr2002                                                 
   LULTRA =        F    use ultrasoft PP ?                                      
   IUNSCR =        1    unscreen: 0-lin 1-nonlin 2-no                           
   RPACOR =    1.200    partial core radius                                     
   POMASS =   12.011; ZVAL   =    4.000    mass and valenz                      
   RCORE  =    1.500    outmost cutoff radius                                   
   RWIGS  =    1.630; RWIGS  =    0.863    wigner-seitz radius (au A)           
   ENMAX  =  400.000; ENMIN  =  300.000 eV                                      
   ICORE  =        2    local potential                                         
   LCOR   =        T    correct aug charges                                     
   LPAW   =        T    paw PP                                                  
   EAUG   =  644.873                                                            
   DEXC   =    0.000                                                            
   RMAX   =    1.529    core radius for proj-oper                               
   RAUG   =    1.300    factor for augmentation sphere                          
   RDEP   =    1.501    radius for radial grids                                 
   RDEPT  =    1.300    core radius for aug-charge                              
                                                                                
   Atomic configuration                                                         
    4 entries                                                                   
     n  l   j            E        occ.                                          
     1  0  0.50      -273.3789   2.0000                                         
     2  0  0.50       -13.7508   2.0000                                         
     2  1  0.50        -5.2854   2.0000                                         
     3  2  1.50        -5.4423   0.0000                                         
   Description                                                                  
     l       E           TYP  RCUT    TYP  RCUT                                 
     0    -13.7508458     23  1.200                                             
     0     -8.2022199     23  1.200                                             
     1     -5.2854383     23  1.500                                             
     1     34.0145650     23  1.500                                             
     2     -5.4423304      7  1.500                                             
  local pseudopotential read in
  partial core-charges read in
  partial kinetic energy density read in
  atomic valenz-charges read in
  non local Contribution for L=           0  read in
    real space projection operators read in
  non local Contribution for L=           0  read in
    real space projection operators read in
  non local Contribution for L=           1  read in
    real space projection operators read in
  non local Contribution for L=           1  read in
    real space projection operators read in
    PAW grid and wavefunctions read in
 
   number of l-projection  operators is LMAX  =           4
   number of lm-projection operators is LMMAX =           8
 
 POTCAR:    PAW_PBE H 15Jun2001                   
   VRHFIN =H: ultrasoft test                                                    
   LEXCH  = PE                                                                  
   EATOM  =    12.4884 eV,    0.9179 Ry                                         
                                                                                
   TITEL  = PAW_PBE H 15Jun2001                                                 
   LULTRA =        F    use ultrasoft PP ?                                      
   IUNSCR =        0    unscreen: 0-lin 1-nonlin 2-no                           
   RPACOR =    0.000    partial core radius                                     
   POMASS =    1.000; ZVAL   =    1.000    mass and valenz                      
   RCORE  =    1.100    outmost cutoff radius                                   
   RWIGS  =    0.700; RWIGS  =    0.370    wigner-seitz radius (au A)           
   ENMAX  =  250.000; ENMIN  =  200.000 eV                                      
   RCLOC  =    0.701    cutoff for local pot                                    
   LCOR   =        T    correct aug charges                                     
   LPAW   =        T    paw PP                                                  
   EAUG   =  400.000                                                            
   RMAX   =    1.123    core radius for proj-oper                               
   RAUG   =    1.200    factor for augmentation sphere                          
   RDEP   =    1.112    radius for radial grids                                 
   RDEPT  =    0.926    core radius for aug-charge                              
                                                                                
   Atomic configuration                                                         
    2 entries                                                                   
     n  l   j            E        occ.                                          
     1  0  0.50        -6.4927   1.0000                                         
     2  1  0.50        -3.4015   0.0000                                         
   Description                                                                  
     l       E           TYP  RCUT    TYP  RCUT                                 
     0     -6.4927494     23  1.100                                             
     0      6.8029130     23  1.100                                             
     1     -4.0817478     23  1.100                                             
  local pseudopotential read in
  atomic valenz-charges read in
  non local Contribution for L=           0  read in
    real space projection operators read in
  non local Contribution for L=           0  read in
    real space projection operators read in
  non local Contribution for L=           1  read in
    real space projection operators read in
    PAW grid and wavefunctions read in
 
   number of l-projection  operators is LMAX  =           3
   number of lm-projection operators is LMMAX =           5
 
 POTCAR:    PAW_PBE Ir 06Sep2000                  
   VRHFIN =Ir: s1d8                                                             
   LEXCH  = PE                                                                  
   EATOM  =   560.1833 eV,   41.1723 Ry                                         
                                                                                
   TITEL  = PAW_PBE Ir 06Sep2000                                                
   LULTRA =        F    use ultrasoft PP ?                                      
   IUNSCR =        1    unscreen: 0-lin 1-nonlin 2-no                           
   RPACOR =    2.250    partial core radius                                     
   POMASS =  192.220; ZVAL   =    9.000    mass and valenz                      
   RCORE  =    2.600    outmost cutoff radius                                   
   RWIGS  =    2.690; RWIGS  =    1.423    wigner-seitz radius (au A)           
   ENMAX  =  210.864; ENMIN  =  158.148 eV                                      
   RCLOC  =    1.857    cutoff for local pot                                    
   LCOR   =        T    correct aug charges                                     
   LPAW   =        T    paw PP                                                  
   EAUG   =  318.962                                                            
   DEXC   =    0.000                                                            
   RMAX   =    2.667    core radius for proj-oper                               
   RAUG   =    1.300    factor for augmentation sphere                          
   RDEP   =    2.748    radius for radial grids                                 
   RDEPT  =    2.300    core radius for aug-charge                              
                                                                                
   Atomic configuration                                                         
   16 entries                                                                   
     n  l   j            E        occ.                                          
     1  0  0.50    -76100.0449   2.0000                                         
     2  0  0.50    -13308.1683   2.0000                                         
     2  1  1.50    -11558.0021   6.0000                                         
     3  0  0.50     -3110.7274   2.0000                                         
     3  1  1.50     -2599.2109   6.0000                                         
     3  2  2.50     -2037.1515  10.0000                                         
     4  0  0.50      -661.6001   2.0000                                         
     4  1  1.50      -493.8981   6.0000                                         
     4  2  2.50      -288.1909  10.0000                                         
     4  3  3.50       -59.5718  14.0000                                         
     5  0  0.50       -95.3879   2.0000                                         
     5  1  1.50       -52.2747   6.0000                                         
     5  2  2.50        -5.4180   8.0000                                         
     6  0  0.50        -5.5479   1.0000                                         
     6  1  1.50        -6.8029   0.0000                                         
     5  3  2.50        -1.3606   0.0000                                         
   Description                                                                  
     l       E           TYP  RCUT    TYP  RCUT                                 
     2     -5.4179967     23  2.600                                             
     2     -6.7785793     23  2.600                                             
     0     -5.5478636     23  2.600                                             
     0      2.2542272     23  2.600                                             
     1     -2.7211652     23  2.600                                             
     1     20.4087390     23  2.600                                             
  local pseudopotential read in
  partial core-charges read in
  partial kinetic energy density read in
  atomic valenz-charges read in
  non local Contribution for L=           2  read in
    real space projection operators read in
  non local Contribution for L=           2  read in
    real space projection operators read in
  non local Contribution for L=           0  read in
    real space projection operators read in
  non local Contribution for L=           0  read in
    real space projection operators read in
  non local Contribution for L=           1  read in
    real space projection operators read in
  non local Contribution for L=           1  read in
    real space projection operators read in
    PAW grid and wavefunctions read in
 
   number of l-projection  operators is LMAX  =           6
   number of lm-projection operators is LMMAX =          18
 
 POTCAR:    PAW_PBE Pt 04Feb2005                  
   VRHFIN =Pt: s1d9                                                             
   LEXCH  = PE                                                                  
   EATOM  =   729.1176 eV,   53.5886 Ry                                         
                                                                                
   TITEL  = PAW_PBE Pt 04Feb2005                                                
   LULTRA =        F    use ultrasoft PP ?                                      
   IUNSCR =        1    unscreen: 0-lin 1-nonlin 2-no                           
   RPACOR =    2.330    partial core radius                                     
   POMASS =  195.080; ZVAL   =   10.000    mass and valenz                      
   RCORE  =    2.600    outmost cutoff radius                                   
   RWIGS  =    2.750; RWIGS  =    1.455    wigner-seitz radius (au A)           
   ENMAX  =  230.283; ENMIN  =  172.712 eV                                      
   ICORE  =        3    local potential                                         
   LCOR   =        T    correct aug charges                                     
   LPAW   =        T    paw PP                                                  
   EAUG   =  358.966                                                            
   DEXC   =    0.000                                                            
   RMAX   =    2.658    core radius for proj-oper                               
   RAUG   =    1.300    factor for augmentation sphere                          
   RDEP   =    2.761    radius for radial grids                                 
   RDEPT  =    2.203    core radius for aug-charge                              
                                                                                
   Atomic configuration                                                         
   16 entries                                                                   
     n  l   j            E        occ.                                          
     1  0  0.50    -78401.1885   2.0000                                         
     2  0  0.50    -13770.7750   2.0000                                         
     2  1  1.50    -11931.0468   6.0000                                         
     3  0  0.50     -3234.7234   2.0000                                         
     3  1  1.50     -2699.2216   6.0000                                         
     3  2  2.50     -2119.5714  10.0000                                         
     4  0  0.50      -695.1528   2.0000                                         
     4  1  1.50      -519.6034   6.0000                                         
     4  2  2.50      -306.6786  10.0000                                         
     4  3  3.50       -70.1041  14.0000                                         
     5  0  0.50      -101.7747   2.0000                                         
     5  1  1.50       -55.9873   6.0000                                         
     5  2  2.50        -6.1423   9.0000                                         
     6  0  0.50        -5.6573   1.0000                                         
     6  1  1.50        -6.8029   0.0000                                         
     5  3  2.50        -1.3606   0.0000                                         
   Description                                                                  
     l       E           TYP  RCUT    TYP  RCUT                                 
     2     -6.1423404     23  2.500                                             
     2     -7.5029230     23  2.500                                             
     0     -5.6573207     23  2.500                                             
     0      0.7416693     23  2.500                                             
     1     -2.7211652     23  2.600                                             
     1     20.4087390     23  2.600                                             
     3     -1.3605826     23  2.500                                             
  local pseudopotential read in
  partial core-charges read in
  partial kinetic energy density read in
  atomic valenz-charges read in
  non local Contribution for L=           2  read in
    real space projection operators read in
  non local Contribution for L=           2  read in
    real space projection operators read in
  non local Contribution for L=           0  read in
    real space projection operators read in
  non local Contribution for L=           0  read in
    real space projection operators read in
  non local Contribution for L=           1  read in
    real space projection operators read in
  non local Contribution for L=           1  read in
    real space projection operators read in
    PAW grid and wavefunctions read in
 
   number of l-projection  operators is LMAX  =           6
   number of lm-projection operators is LMMAX =          18
 
 Optimization of the real space projectors (new method)

 maximal supplied QI-value         = 15.12
 optimisation between [QCUT,QGAM] = [  9.52, 19.05] = [ 25.40,101.61] Ry 
 Optimized for a Real-space Cutoff    1.57 Angstroem

   l    n(q)    QCUT    max X(q) W(low)/X(q) W(high)/X(q)  e(spline) 
   2      8     9.524    60.898    0.38E-03    0.43E-04    0.84E-07
   2      8     9.524    58.894    0.38E-03    0.47E-04    0.88E-07
   0      9     9.524   109.617    0.60E-04    0.64E-04    0.80E-07
   0      9     9.524    75.026    0.59E-04    0.62E-04    0.78E-07
   1      8     9.524    16.344    0.99E-04    0.18E-03    0.87E-07
   1      8     9.524    10.160    0.78E-04    0.15E-03    0.74E-07
 Optimization of the real space projectors (new method)

 maximal supplied QI-value         = 25.13
 optimisation between [QCUT,QGAM] = [  9.55, 19.10] = [ 25.54,102.17] Ry 
 Optimized for a Real-space Cutoff    1.39 Angstroem

   l    n(q)    QCUT    max X(q) W(low)/X(q) W(high)/X(q)  e(spline) 
   0      8     9.551   115.676    0.39E-03    0.54E-03    0.29E-06
   0      8     9.551    87.132    0.39E-03    0.54E-03    0.28E-06
   1      7     9.551     4.429    0.35E-03    0.51E-04    0.29E-06
   1      7     9.551     2.733    0.22E-03    0.42E-04    0.31E-06
 Optimization of the real space projectors (new method)

 maximal supplied QI-value         = 34.20
 optimisation between [QCUT,QGAM] = [  9.58, 19.15] = [ 25.68,102.74] Ry 
 Optimized for a Real-space Cutoff    1.31 Angstroem

   l    n(q)    QCUT    max X(q) W(low)/X(q) W(high)/X(q)  e(spline) 
   0      7     9.577    19.460    0.33E-03    0.12E-03    0.35E-06
   0      7     9.577    12.209    0.33E-03    0.11E-03    0.33E-06
   1      7     9.577     4.655    0.39E-03    0.14E-02    0.33E-06
 Optimization of the real space projectors (new method)

 maximal supplied QI-value         = 14.36
 optimisation between [QCUT,QGAM] = [  9.48, 19.10] = [ 25.16,102.17] Ry 
 Optimized for a Real-space Cutoff    1.57 Angstroem

   l    n(q)    QCUT    max X(q) W(low)/X(q) W(high)/X(q)  e(spline) 
   2      8     9.479   134.116    0.18E-03    0.75E-03    0.26E-06
   2      8     9.479   130.192    0.18E-03    0.75E-03    0.27E-06
   0      9     9.479    60.310    0.39E-03    0.24E-03    0.63E-07
   0      9     9.479    39.218    0.36E-03    0.22E-03    0.59E-07
   1      8     9.479    18.439    0.20E-03    0.15E-03    0.16E-06
   1      8     9.479    12.760    0.16E-03    0.11E-03    0.13E-06
 Optimization of the real space projectors (new method)

 maximal supplied QI-value         = 14.36
 optimisation between [QCUT,QGAM] = [  9.48, 19.10] = [ 25.16,102.17] Ry 
 Optimized for a Real-space Cutoff    1.57 Angstroem

   l    n(q)    QCUT    max X(q) W(low)/X(q) W(high)/X(q)  e(spline) 
   2      8     9.479    66.195    0.35E-03    0.53E-04    0.87E-07
   2      8     9.479    64.643    0.35E-03    0.57E-04    0.91E-07
   0      9     9.479    95.520    0.50E-04    0.62E-04    0.81E-07
   0      9     9.479    63.403    0.49E-04    0.60E-04    0.78E-07
   1      8     9.479    19.961    0.10E-03    0.87E-04    0.11E-06
   1      8     9.479    13.289    0.88E-04    0.71E-04    0.97E-07
  PAW_PBE Au 04Oct2007                  :
 energy of atom  1       EATOM= -926.0867
 kinetic energy error for atom=    0.0152 (will be added to EATOM!!)
  PAW_PBE C 08Apr2002                   :
 energy of atom  2       EATOM= -147.1560
 kinetic energy error for atom=    0.0854 (will be added to EATOM!!)
  PAW_PBE H 15Jun2001                   :
 energy of atom  3       EATOM=  -12.4884
 kinetic energy error for atom=    0.0203 (will be added to EATOM!!)
  PAW_PBE Ir 06Sep2000                  :
 energy of atom  4       EATOM= -560.1833
 kinetic energy error for atom=    0.0056 (will be added to EATOM!!)
  PAW_PBE Pt 04Feb2005                  :
 energy of atom  5       EATOM= -729.1176
 kinetic energy error for atom=    0.0144 (will be added to EATOM!!)
 
 
 POSCAR: Au  C  H Ir Pt                          
  positions in cartesian coordinates
  No initial velocities read in
 exchange correlation table for  LEXCH =        8
   RHO(1)=    0.500       N(1)  =     2000
   RHO(2)=  100.500       N(2)  =     4000
 


--------------------------------------------------------------------------------------------------------


 ion  position               nearest neighbor table
   1  0.339  0.337  0.544-  13 2.78  20 2.78  21 2.78  21 2.78  13 2.78  20 2.78  17 2.79  15 2.79
                             8 2.79  16 2.79  10 2.82   9 2.84
   2  0.997  0.982  0.699-   5 1.10   6 1.10   4 1.10  11 2.09
   3  0.046  0.260  0.656-   9 1.69  11 1.79
   4  0.877  0.193  0.712-   2 1.10
   5  0.898  0.860  0.707-   2 1.10
   6  0.213  0.882  0.710-   2 1.10
   7  0.500  0.005  0.394-  19 2.77  12 2.77  18 2.78  18 2.78  12 2.78  19 2.79  14 2.82  16 2.83
                            17 2.83
   8  0.505  0.502  0.619-   9 2.76  10 2.77  20 2.78  13 2.78  10 2.79   1 2.79  11 2.79   9 2.80
                            11 2.82
   9  0.006  0.506  0.620-   3 1.69  11 2.73  10 2.75   8 2.76   8 2.80  21 2.80  10 2.81  13 2.83
                             1 2.84  11 2.86
  10  0.510  0.998  0.619-   9 2.75  21 2.76  11 2.76  20 2.77   8 2.77   8 2.79   9 2.81   1 2.82
                            11 2.84
  11  0.003  0.996  0.631-   3 1.79   2 2.09   9 2.73  10 2.76   8 2.79   8 2.82  10 2.84   9 2.86
                            21 3.04  20 3.07  13 3.10
  12  0.002  0.004  0.395-  18 2.77   7 2.77  19 2.78  19 2.78   7 2.78  18 2.79  16 2.81  15 2.83
                            17 2.84
  13  0.840  0.335  0.545-  20 2.75  21 2.75   1 2.78   8 2.78   1 2.78  17 2.80  21 2.81  20 2.81
                             9 2.83  16 2.83  14 2.84  11 3.10
  14  0.670  0.672  0.470-  16 2.78  15 2.78  17 2.78  17 2.78  16 2.78  15 2.78  19 2.82   7 2.82
                            20 2.84  18 2.84  13 2.84  21 2.86
  15  0.169  0.672  0.471-  14 2.78  17 2.78  16 2.78  16 2.78  17 2.78  14 2.78   1 2.79  21 2.80
                            20 2.81  12 2.83  18 2.84  19 2.85
  16  0.669  0.173  0.470-  14 2.78  17 2.78  15 2.78  15 2.78  17 2.78  14 2.78   1 2.79  12 2.81
                            13 2.83  18 2.83   7 2.83  21 2.84
  17  0.170  0.172  0.470-  15 2.78  16 2.78  14 2.78  15 2.78  14 2.78  16 2.78   1 2.79  13 2.80
                            20 2.81   7 2.83  19 2.84  12 2.84
  18  0.499  0.505  0.394-  19 2.77  12 2.77   7 2.78   7 2.78  12 2.79  19 2.79  16 2.83  14 2.84
                            15 2.84
  19  0.002  0.504  0.394-  18 2.77   7 2.77  12 2.78  12 2.78   7 2.79  18 2.79  14 2.82  17 2.84
                            15 2.85
  20  0.335  0.839  0.546-  21 2.74  13 2.75  10 2.77   1 2.78   8 2.78   1 2.78  13 2.81  15 2.81
                            21 2.81  17 2.81  14 2.84  11 3.07
  21  0.842  0.839  0.546-  20 2.74  13 2.75  10 2.76   1 2.78   1 2.78   9 2.80  15 2.80  13 2.81
                            20 2.81  16 2.84  14 2.86  11 3.04
 
  LATTYP: Found a hexagonal cell.
 ALAT       =     5.5578593001
 C/A-ratio  =     5.5429542221
  
  Lattice vectors:
  
 A1 = (   2.7789296501,  -4.8132473446,   0.0000000000)
 A2 = (  -5.5578593001,   0.0000000000,   0.0000000000)
 A3 = (   0.0000000000,   0.0000000000, -30.8069596737)


Analysis of symmetry for initial positions (statically):
=====================================================================
 Subroutine PRICEL returns:
 Original cell was already a primitive cell.
 

 Routine SETGRP: Setting up the symmetry group for a 
 hexagonal supercell.


 Subroutine GETGRP returns: Found  1 space group operations
 (whereof  1 operations were pure point group operations)
 out of a pool of 24 trial point group operations.


The static configuration has the point symmetry C_1 .


Analysis of symmetry for dynamics (positions and initial velocities):
=====================================================================
 Subroutine PRICEL returns:
 Original cell was already a primitive cell.
 

 Routine SETGRP: Setting up the symmetry group for a 
 hexagonal supercell.


 Subroutine GETGRP returns: Found  1 space group operations
 (whereof  1 operations were pure point group operations)
 out of a pool of 24 trial point group operations.


The dynamic configuration has the point symmetry C_1 .


 Subroutine INISYM returns: Found  1 space group operations
 (whereof  1 operations are pure point group operations),
 and found     1 'primitive' translations

 
 
 KPOINTS: 0.6.Ir1.Au9                             

Automatic generation of k-mesh.
Space group operators:
 irot       det(A)        alpha          n_x          n_y          n_z        tau_x        tau_y        tau_z
    1     1.000000     0.000001     1.000000     0.000000     0.000000     0.000000     0.000000     0.000000
 
 Subroutine IBZKPT returns following result:
 ===========================================
 
 Found     96 irreducible k-points:
 
 Following reciprocal coordinates:
            Coordinates               Weight
  0.062500  0.062500  0.000000     16.000000
  0.000000  0.062500  0.000000     16.000000
 -0.062500  0.000000  0.000000     16.000000
  0.187500  0.062500  0.000000     16.000000
  0.125000  0.187500  0.000000     16.000000
 -0.062500  0.125000  0.000000     16.000000
  0.125000 -0.062500  0.000000     16.000000
 -0.062500 -0.187500  0.000000     16.000000
 -0.187500 -0.125000  0.000000     16.000000
  0.312500  0.062500  0.000000     16.000000
  0.250000  0.312500  0.000000     16.000000
 -0.062500  0.250000  0.000000     16.000000
  0.250000 -0.062500  0.000000     16.000000
 -0.062500 -0.312500  0.000000     16.000000
 -0.312500 -0.250000  0.000000     16.000000
  0.437500  0.062500  0.000000     16.000000
  0.375000  0.437500  0.000000     16.000000
 -0.062500  0.375000  0.000000     16.000000
  0.375000 -0.062500  0.000000     16.000000
 -0.062500 -0.437500  0.000000     16.000000
 -0.437500 -0.375000  0.000000     16.000000
 -0.437500  0.062500  0.000000     16.000000
  0.500000 -0.437500  0.000000     16.000000
 -0.062500  0.500000  0.000000     16.000000
  0.500000 -0.062500  0.000000     16.000000
 -0.062500  0.437500  0.000000     16.000000
  0.437500  0.500000  0.000000     16.000000
 -0.312500  0.062500  0.000000     16.000000
 -0.375000 -0.312500  0.000000     16.000000
 -0.062500 -0.375000  0.000000     16.000000
 -0.375000 -0.062500  0.000000     16.000000
 -0.062500  0.312500  0.000000     16.000000
  0.312500  0.375000  0.000000     16.000000
 -0.187500  0.062500  0.000000     16.000000
 -0.250000 -0.187500  0.000000     16.000000
 -0.062500 -0.250000  0.000000     16.000000
 -0.250000 -0.062500  0.000000     16.000000
 -0.062500  0.187500  0.000000     16.000000
  0.187500  0.250000  0.000000     16.000000
 -0.062500  0.062500  0.000000     16.000000
 -0.125000 -0.062500  0.000000     16.000000
 -0.062500 -0.125000  0.000000     16.000000
  0.187500  0.187500  0.000000     16.000000
  0.000000  0.187500  0.000000     16.000000
 -0.187500  0.000000  0.000000     16.000000
  0.312500  0.187500  0.000000     16.000000
  0.125000  0.312500  0.000000     16.000000
 -0.187500  0.125000  0.000000     16.000000
  0.125000 -0.187500  0.000000     16.000000
 -0.187500 -0.312500  0.000000     16.000000
 -0.312500 -0.125000  0.000000     16.000000
  0.437500  0.187500  0.000000     16.000000
  0.250000  0.437500  0.000000     16.000000
 -0.187500  0.250000  0.000000     16.000000
  0.250000 -0.187500  0.000000     16.000000
 -0.187500 -0.437500  0.000000     16.000000
 -0.437500 -0.250000  0.000000     16.000000
 -0.437500  0.187500  0.000000     16.000000
  0.375000 -0.437500  0.000000     16.000000
 -0.187500  0.375000  0.000000     16.000000
  0.375000 -0.187500  0.000000     16.000000
 -0.187500  0.437500  0.000000     16.000000
  0.437500 -0.375000  0.000000     16.000000
 -0.312500  0.187500  0.000000     16.000000
  0.500000 -0.312500  0.000000     16.000000
 -0.187500  0.500000  0.000000     16.000000
  0.500000 -0.187500  0.000000     16.000000
 -0.187500  0.312500  0.000000     16.000000
  0.312500  0.500000  0.000000     16.000000
 -0.187500  0.187500  0.000000     16.000000
 -0.375000 -0.187500  0.000000     16.000000
 -0.187500 -0.375000  0.000000     16.000000
  0.312500  0.312500  0.000000     16.000000
  0.000000  0.312500  0.000000     16.000000
 -0.312500  0.000000  0.000000     16.000000
  0.437500  0.312500  0.000000     16.000000
  0.125000  0.437500  0.000000     16.000000
 -0.312500  0.125000  0.000000     16.000000
  0.125000 -0.312500  0.000000     16.000000
 -0.312500 -0.437500  0.000000     16.000000
 -0.437500 -0.125000  0.000000     16.000000
 -0.437500  0.312500  0.000000     16.000000
  0.250000 -0.437500  0.000000     16.000000
 -0.312500  0.250000  0.000000     16.000000
  0.250000 -0.312500  0.000000     16.000000
 -0.312500  0.437500  0.000000     16.000000
  0.437500 -0.250000  0.000000     16.000000
 -0.312500  0.312500  0.000000     16.000000
  0.375000 -0.312500  0.000000     16.000000
 -0.312500  0.375000  0.000000     16.000000
  0.437500  0.437500  0.000000     16.000000
  0.000000  0.437500  0.000000     16.000000
 -0.437500 -0.000000  0.000000     16.000000
 -0.437500  0.437500  0.000000     16.000000
  0.125000 -0.437500  0.000000     16.000000
 -0.437500  0.125000  0.000000     16.000000
 
 Following cartesian coordinates:
            Coordinates               Weight
  0.011245  0.006492  0.000000     16.000000
  0.000000  0.012985  0.000000     16.000000
 -0.011245  0.006492  0.000000     16.000000
  0.033736 -0.006492  0.000000     16.000000
  0.022491  0.025970  0.000000     16.000000
 -0.011245  0.032462  0.000000     16.000000
  0.022491 -0.025970  0.000000     16.000000
 -0.011245 -0.032462  0.000000     16.000000
 -0.033736 -0.006492  0.000000     16.000000
  0.056227 -0.019477  0.000000     16.000000
  0.044981  0.038955  0.000000     16.000000
 -0.011245  0.058432  0.000000     16.000000
  0.044981 -0.038955  0.000000     16.000000
 -0.011245 -0.058432  0.000000     16.000000
 -0.056227 -0.019477  0.000000     16.000000
  0.078717 -0.032462  0.000000     16.000000
  0.067472  0.051940  0.000000     16.000000
 -0.011245  0.084402  0.000000     16.000000
  0.067472 -0.051940  0.000000     16.000000
 -0.011245 -0.084402  0.000000     16.000000
 -0.078717 -0.032462  0.000000     16.000000
 -0.078717  0.058432  0.000000     16.000000
  0.089963 -0.142835  0.000000     16.000000
 -0.011245  0.110372  0.000000     16.000000
  0.089963 -0.064925  0.000000     16.000000
 -0.011245  0.097387  0.000000     16.000000
  0.078717  0.058432  0.000000     16.000000
 -0.056227  0.045447  0.000000     16.000000
 -0.067472 -0.025970  0.000000     16.000000
 -0.011245 -0.071417  0.000000     16.000000
 -0.067472  0.025970  0.000000     16.000000
 -0.011245  0.071417  0.000000     16.000000
  0.056227  0.045447  0.000000     16.000000
 -0.033736  0.032462  0.000000     16.000000
 -0.044981 -0.012985  0.000000     16.000000
 -0.011245 -0.045447  0.000000     16.000000
 -0.044981  0.012985  0.000000     16.000000
 -0.011245  0.045447  0.000000     16.000000
  0.033736  0.032462  0.000000     16.000000
 -0.011245  0.019477  0.000000     16.000000
 -0.022491  0.000000  0.000000     16.000000
 -0.011245 -0.019477  0.000000     16.000000
  0.033736  0.019477  0.000000     16.000000
  0.000000  0.038955  0.000000     16.000000
 -0.033736  0.019477  0.000000     16.000000
  0.056227  0.006492  0.000000     16.000000
  0.022491  0.051940  0.000000     16.000000
 -0.033736  0.045447  0.000000     16.000000
  0.022491 -0.051940  0.000000     16.000000
 -0.033736 -0.045447  0.000000     16.000000
 -0.056227  0.006492  0.000000     16.000000
  0.078717 -0.006492  0.000000     16.000000
  0.044981  0.064925  0.000000     16.000000
 -0.033736  0.071417  0.000000     16.000000
  0.044981 -0.064925  0.000000     16.000000
 -0.033736 -0.071417  0.000000     16.000000
 -0.078717 -0.006492  0.000000     16.000000
 -0.078717  0.084402  0.000000     16.000000
  0.067472 -0.129850  0.000000     16.000000
 -0.033736  0.097387  0.000000     16.000000
  0.067472 -0.077910  0.000000     16.000000
 -0.033736  0.110372  0.000000     16.000000
  0.078717 -0.123357  0.000000     16.000000
 -0.056227  0.071417  0.000000     16.000000
  0.089963 -0.116865  0.000000     16.000000
 -0.033736  0.123357  0.000000     16.000000
  0.089963 -0.090895  0.000000     16.000000
 -0.033736  0.084402  0.000000     16.000000
  0.056227  0.071417  0.000000     16.000000
 -0.033736  0.058432  0.000000     16.000000
 -0.067472  0.000000  0.000000     16.000000
 -0.033736 -0.058432  0.000000     16.000000
  0.056227  0.032462  0.000000     16.000000
  0.000000  0.064925  0.000000     16.000000
 -0.056227  0.032462  0.000000     16.000000
  0.078717  0.019477  0.000000     16.000000
  0.022491  0.077910  0.000000     16.000000
 -0.056227  0.058432  0.000000     16.000000
  0.022491 -0.077910  0.000000     16.000000
 -0.056227 -0.058432  0.000000     16.000000
 -0.078717  0.019477  0.000000     16.000000
 -0.078717  0.110372  0.000000     16.000000
  0.044981 -0.116865  0.000000     16.000000
 -0.056227  0.084402  0.000000     16.000000
  0.044981 -0.090895  0.000000     16.000000
 -0.056227  0.123357  0.000000     16.000000
  0.078717 -0.097387  0.000000     16.000000
 -0.056227  0.097387  0.000000     16.000000
  0.067472 -0.103880  0.000000     16.000000
 -0.056227  0.110372  0.000000     16.000000
  0.078717  0.045447  0.000000     16.000000
  0.000000  0.090895  0.000000     16.000000
 -0.078717  0.045447  0.000000     16.000000
 -0.078717  0.136342  0.000000     16.000000
  0.022491 -0.103880  0.000000     16.000000
 -0.078717  0.071417  0.000000     16.000000
 


--------------------------------------------------------------------------------------------------------




 Dimension of arrays:
   k-points           NKPTS =     96   k-points in BZ     NKDIM =     96   number of bands    NBANDS=    100
   number of dos      NEDOS =    301   number of ions     NIONS =     21
   non local maximal  LDIM  =      6   non local SUM 2l+1 LMDIM =     18
   total plane-waves  NPLWV = 112896
   max r-space proj   IRMAX =   2252   max aug-charges    IRDMAX=  10104
   dimension x,y,z NGX =    28 NGY =   28 NGZ =  144
   dimension x,y,z NGXF=    56 NGYF=   56 NGZF=  288
   support grid    NGXF=    56 NGYF=   56 NGZF=  288
   ions per type =               1   1   4   1  14
   NGX,Y,Z   is equivalent  to a cutoff of   8.38,  8.38,  7.77 a.u.
   NGXF,Y,Z  is equivalent  to a cutoff of  16.75, 16.75, 15.54 a.u.

 SYSTEM =  0.6.Ir1.Au9                             
 POSCAR =  Au  C  H Ir Pt                          

 Startparameter for this run:
   NWRITE =      2    write-flag & timer
   PREC   = normal    normal or accurate (medium, high low for compatibility)
   ISTART =      0    job   : 0-new  1-cont  2-samecut
   ICHARG =      2    charge: 1-file 2-atom 10-const
   ISPIN  =      1    spin polarized calculation?
   LNONCOLLINEAR =      F non collinear calculations
   LSORBIT =      F    spin-orbit coupling
   INIWAV =      1    electr: 0-lowe 1-rand  2-diag
   LASPH  =      F    aspherical Exc in radial PAW
   METAGGA=      F    non-selfconsistent MetaGGA calc.

 Electronic Relaxation 1
   ENCUT  =  350.0 eV  25.72 Ry    5.07 a.u.   8.48  8.48 46.99*2*pi/ulx,y,z
   ENINI  =  350.0     initial cutoff
   ENAUG  =  644.9 eV  augmentation charge cutoff
   NELM   =   1000;   NELMIN=  5; NELMDL= -5     # of ELM steps 
   EDIFF  = 0.1E-04   stopping-criterion for ELM
   LREAL  =      T    real-space projection
   NLSPLINE    = F    spline interpolate recip. space projectors
   LCOMPAT=      F    compatible to vasp.4.4
   GGA_COMPAT  = T    GGA compatible to vasp.4.4-vasp.4.6
   LMAXPAW     = -100 max onsite density
   LMAXMIX     =    2 max onsite mixed and CHGCAR
   VOSKOWN=      0    Vosko Wilk Nusair interpolation
   ROPT   =   -0.00050  -0.00050  -0.00050  -0.00050
   ROPT   =   -0.00050
 Ionic relaxation
   EDIFFG = 0.1E-03   stopping-criterion for IOM
   NSW    =      0    number of steps for IOM
   NBLOCK =      1;   KBLOCK =      1    inner block; outer block 
   IBRION =     -1    ionic relax: 0-MD 1-quasi-New 2-CG
   NFREE  =      0    steps in history (QN), initial steepest desc. (CG)
   ISIF   =      2    stress and relaxation
   IWAVPR =     10    prediction:  0-non 1-charg 2-wave 3-comb
   ISYM   =      2    0-nonsym 1-usesym 2-fastsym
   LCORR  =      T    Harris-Foulkes like correction to forces

   POTIM  = 0.5000    time-step for ionic-motion
   TEIN   =    0.0    initial temperature
   TEBEG  =    0.0;   TEEND  =   0.0 temperature during run
   SMASS  =  -3.00    Nose mass-parameter (am)
   estimated Nose-frequenzy (Omega)   =  0.10E-29 period in steps =****** mass=  -0.706E-27a.u.
   SCALEE = 1.0000    scale energy and forces
   NPACO  =    256;   APACO  = 16.0  distance and # of slots for P.C.
   PSTRESS=    0.0 pullay stress

  Mass of Ions in am
   POMASS = 196.97 12.01  1.00192.22195.08
  Ionic Valenz
   ZVAL   =  11.00  4.00  1.00  9.00 10.00
  Atomic Wigner-Seitz radii
   RWIGS  =  -1.00 -1.00 -1.00 -1.00 -1.00
  virtual crystal weights 
   VCA    =   1.00  1.00  1.00  1.00  1.00
   NELECT =     168.0000    total number of electrons
   NUPDOWN=      -1.0000    fix difference up-down

 DOS related values:
   EMIN   =  10.00;   EMAX   =-10.00  energy-range for DOS
   EFERMI =   0.00
   ISMEAR =     1;   SIGMA  =   0.20  broadening in eV -4-tet -1-fermi 0-gaus

 Electronic relaxation 2 (details)
   IALGO  =     38    algorithm
   LDIAG  =      T    sub-space diagonalisation (order eigenvalues)
   LSUBROT=      F    optimize rotation matrix (better conditioning)
   TURBO    =      0    0=normal 1=particle mesh
   IRESTART =      0    0=no restart 2=restart with 2 vectors
   NREBOOT  =      0    no. of reboots
   NMIN     =      0    reboot dimension
   EREF     =   0.00    reference energy to select bands
   IMIX   =      4    mixing-type and parameters
     AMIX     =   0.40;   BMIX     =  1.00
     AMIX_MAG =   1.60;   BMIX_MAG =  1.00
     AMIN     =   0.10
     WC   =   100.;   INIMIX=   1;  MIXPRE=   1;  MAXMIX= -45

 Intra band minimization:
   WEIMIN = 0.0000     energy-eigenvalue tresh-hold
   EBREAK =  0.25E-07  absolut break condition
   DEPER  =   0.30     relativ break condition  

   TIME   =   0.40     timestep for ELM

  volume/ion in A,a.u.               =      39.24       264.83
  Fermi-wavevector in a.u.,A,eV,Ry     =   0.963488  1.820729 12.630418  0.928310
  Thomas-Fermi vector in A             =   2.093038
 
 Write flags
   LWAVE        =      F    write WAVECAR
   LDOWNSAMPLE  =      F    k-point downsampling of WAVECAR
   LCHARG       =      F    write CHGCAR
   LVTOT        =      F    write LOCPOT, total local potential
   LVHAR        =      F    write LOCPOT, Hartree potential only
   LELF         =      F    write electronic localiz. function (ELF)
   LORBIT       =      0    0 simple, 1 ext, 2 COOP (PROOUT), +10 PAW based schemes


 Dipole corrections
   LMONO  =      F    monopole corrections only (constant potential shift)
   LDIPOL =      F    correct potential (dipole corrections)
   IDIPOL =      3    1-x, 2-y, 3-z, 4-all directions 
   EPSILON=  1.0000000 bulk dielectric constant

 Exchange correlation treatment:
   GGA     =    --    GGA type
   LEXCH   =     8    internal setting for exchange type
   VOSKOWN=      0    Vosko Wilk Nusair interpolation
   LHFCALC =     F    Hartree Fock is set to
   LHFONE  =     F    Hartree Fock one center treatment
   AEXX    =    0.0000 exact exchange contribution

 Linear response parameters
   LEPSILON=     F    determine dielectric tensor
   LRPA    =     F    only Hartree local field effects (RPA)
   LNABLA  =     F    use nabla operator in PAW spheres
   LVEL    =     F    velocity operator in full k-point grid
   LINTERFAST=   F  fast interpolation
   KINTER  =     0    interpolate to denser k-point grid
   CSHIFT  =0.1000    complex shift for real part using Kramers Kronig
   OMEGAMAX=  -1.0    maximum frequency
   DEG_THRESHOLD= 0.2000000E-02 threshold for treating states as degnerate
   RTIME   =   -0.100 relaxation time in fs
  (WPLASMAI=    0.000 imaginary part of plasma frequency in eV, 0.658/RTIME)
   DFIELD  = 0.0000000 0.0000000 0.0000000 field for delta impulse in time
 
 Orbital magnetization related:
   ORBITALMAG=     F  switch on orbital magnetization
   LCHIMAG   =     F  perturbation theory with respect to B field
   DQ        =  0.001000  dq finite difference perturbation B field
   LLRAUG    =     F  two centre corrections for induced B field



--------------------------------------------------------------------------------------------------------


 Static calculation
 charge density and potential will be updated during run
 non-spin polarized calculation
 Variant of blocked Davidson
 Davidson routine will perform the subspace rotation
 perform sub-space diagonalisation
    after iterative eigenvector-optimisation
 modified Broyden-mixing scheme, WC =      100.0
 initial mixing is a Kerker type mixing with AMIX =  0.4000 and BMIX =      1.0000
 Hartree-type preconditioning will be used
 using additional bands           16
 real space projection scheme for non local part
 use partial core corrections
 calculate Harris-corrections to forces 
   (improved forces if not selfconsistent)
 use gradient corrections 
 use of overlap-Matrix (Vanderbilt PP)
 Methfessel and Paxton  Order N= 1 SIGMA  =   0.20


--------------------------------------------------------------------------------------------------------


  energy-cutoff  :      350.00
  volume of cell :      824.13
      direct lattice vectors                 reciprocal lattice vectors
     5.557859300  0.000000000  0.000000000     0.179925390 -0.103879972  0.000000000
     2.778929650  4.813247345  0.000000000     0.000000000  0.207759944  0.000000000
     0.000000000  0.000000000 30.806959674     0.000000000  0.000000000  0.032460198

  length of vectors
     5.557859300  5.557859300 30.806959674     0.207759944  0.207759944  0.032460198


 
 k-points in units of 2pi/SCALE and weight: 0.6.Ir1.Au9                             
   0.01124534  0.00649250  0.00000000       0.010
   0.00000000  0.01298500  0.00000000       0.010
  -0.01124534  0.00649250  0.00000000       0.010
   0.03373601 -0.00649250  0.00000000       0.010
   0.02249067  0.02596999  0.00000000       0.010
  -0.01124534  0.03246249  0.00000000       0.010
   0.02249067 -0.02596999  0.00000000       0.010
  -0.01124534 -0.03246249  0.00000000       0.010
  -0.03373601 -0.00649250  0.00000000       0.010
   0.05622668 -0.01947749  0.00000000       0.010
   0.04498135  0.03895499  0.00000000       0.010
  -0.01124534  0.05843248  0.00000000       0.010
   0.04498135 -0.03895499  0.00000000       0.010
  -0.01124534 -0.05843248  0.00000000       0.010
  -0.05622668 -0.01947749  0.00000000       0.010
   0.07871736 -0.03246249  0.00000000       0.010
   0.06747202  0.05193999  0.00000000       0.010
  -0.01124534  0.08440248  0.00000000       0.010
   0.06747202 -0.05193999  0.00000000       0.010
  -0.01124534 -0.08440248  0.00000000       0.010
  -0.07871736 -0.03246249  0.00000000       0.010
  -0.07871736  0.05843248  0.00000000       0.010
   0.08996269 -0.14283496  0.00000000       0.010
  -0.01124534  0.11037247  0.00000000       0.010
   0.08996269 -0.06492498  0.00000000       0.010
  -0.01124534  0.09738747  0.00000000       0.010
   0.07871736  0.05843248  0.00000000       0.010
  -0.05622668  0.04544749  0.00000000       0.010
  -0.06747202 -0.02596999  0.00000000       0.010
  -0.01124534 -0.07141748  0.00000000       0.010
  -0.06747202  0.02596999  0.00000000       0.010
  -0.01124534  0.07141748  0.00000000       0.010
   0.05622668  0.04544749  0.00000000       0.010
  -0.03373601  0.03246249  0.00000000       0.010
  -0.04498135 -0.01298500  0.00000000       0.010
  -0.01124534 -0.04544749  0.00000000       0.010
  -0.04498135  0.01298500  0.00000000       0.010
  -0.01124534  0.04544749  0.00000000       0.010
   0.03373601  0.03246249  0.00000000       0.010
  -0.01124534  0.01947749  0.00000000       0.010
  -0.02249067  0.00000000  0.00000000       0.010
  -0.01124534 -0.01947749  0.00000000       0.010
   0.03373601  0.01947749  0.00000000       0.010
   0.00000000  0.03895499  0.00000000       0.010
  -0.03373601  0.01947749  0.00000000       0.010
   0.05622668  0.00649250  0.00000000       0.010
   0.02249067  0.05193999  0.00000000       0.010
  -0.03373601  0.04544749  0.00000000       0.010
   0.02249067 -0.05193999  0.00000000       0.010
  -0.03373601 -0.04544749  0.00000000       0.010
  -0.05622668  0.00649250  0.00000000       0.010
   0.07871736 -0.00649250  0.00000000       0.010
   0.04498135  0.06492498  0.00000000       0.010
  -0.03373601  0.07141748  0.00000000       0.010
   0.04498135 -0.06492498  0.00000000       0.010
  -0.03373601 -0.07141748  0.00000000       0.010
  -0.07871736 -0.00649250  0.00000000       0.010
  -0.07871736  0.08440248  0.00000000       0.010
   0.06747202 -0.12984997  0.00000000       0.010
  -0.03373601  0.09738747  0.00000000       0.010
   0.06747202 -0.07790998  0.00000000       0.010
  -0.03373601  0.11037247  0.00000000       0.010
   0.07871736 -0.12335747  0.00000000       0.010
  -0.05622668  0.07141748  0.00000000       0.010
   0.08996269 -0.11686497  0.00000000       0.010
  -0.03373601  0.12335747  0.00000000       0.010
   0.08996269 -0.09089498  0.00000000       0.010
  -0.03373601  0.08440248  0.00000000       0.010
   0.05622668  0.07141748  0.00000000       0.010
  -0.03373601  0.05843248  0.00000000       0.010
  -0.06747202  0.00000000  0.00000000       0.010
  -0.03373601 -0.05843248  0.00000000       0.010
   0.05622668  0.03246249  0.00000000       0.010
   0.00000000  0.06492498  0.00000000       0.010
  -0.05622668  0.03246249  0.00000000       0.010
   0.07871736  0.01947749  0.00000000       0.010
   0.02249067  0.07790998  0.00000000       0.010
  -0.05622668  0.05843248  0.00000000       0.010
   0.02249067 -0.07790998  0.00000000       0.010
  -0.05622668 -0.05843248  0.00000000       0.010
  -0.07871736  0.01947749  0.00000000       0.010
  -0.07871736  0.11037247  0.00000000       0.010
   0.04498135 -0.11686497  0.00000000       0.010
  -0.05622668  0.08440248  0.00000000       0.010
   0.04498135 -0.09089498  0.00000000       0.010
  -0.05622668  0.12335747  0.00000000       0.010
   0.07871736 -0.09738747  0.00000000       0.010
  -0.05622668  0.09738747  0.00000000       0.010
   0.06747202 -0.10387997  0.00000000       0.010
  -0.05622668  0.11037247  0.00000000       0.010
   0.07871736  0.04544749  0.00000000       0.010
   0.00000000  0.09089498  0.00000000       0.010
  -0.07871736  0.04544749  0.00000000       0.010
  -0.07871736  0.13634246  0.00000000       0.010
   0.02249067 -0.10387997  0.00000000       0.010
  -0.07871736  0.07141748  0.00000000       0.010
 
 k-points in reciprocal lattice and weights: 0.6.Ir1.Au9                             
   0.06250000  0.06250000  0.00000000       0.010
   0.00000000  0.06250000  0.00000000       0.010
  -0.06250000  0.00000000  0.00000000       0.010
   0.18750000  0.06250000  0.00000000       0.010
   0.12500000  0.18750000  0.00000000       0.010
  -0.06250000  0.12500000  0.00000000       0.010
   0.12500000 -0.06250000  0.00000000       0.010
  -0.06250000 -0.18750000  0.00000000       0.010
  -0.18750000 -0.12500000  0.00000000       0.010
   0.31250000  0.06250000  0.00000000       0.010
   0.25000000  0.31250000  0.00000000       0.010
  -0.06250000  0.25000000  0.00000000       0.010
   0.25000000 -0.06250000  0.00000000       0.010
  -0.06250000 -0.31250000  0.00000000       0.010
  -0.31250000 -0.25000000  0.00000000       0.010
   0.43750000  0.06250000  0.00000000       0.010
   0.37500000  0.43750000  0.00000000       0.010
  -0.06250000  0.37500000  0.00000000       0.010
   0.37500000 -0.06250000  0.00000000       0.010
  -0.06250000 -0.43750000  0.00000000       0.010
  -0.43750000 -0.37500000  0.00000000       0.010
  -0.43750000  0.06250000  0.00000000       0.010
   0.50000000 -0.43750000  0.00000000       0.010
  -0.06250000  0.50000000  0.00000000       0.010
   0.50000000 -0.06250000  0.00000000       0.010
  -0.06250000  0.43750000  0.00000000       0.010
   0.43750000  0.50000000  0.00000000       0.010
  -0.31250000  0.06250000  0.00000000       0.010
  -0.37500000 -0.31250000  0.00000000       0.010
  -0.06250000 -0.37500000  0.00000000       0.010
  -0.37500000 -0.06250000  0.00000000       0.010
  -0.06250000  0.31250000  0.00000000       0.010
   0.31250000  0.37500000  0.00000000       0.010
  -0.18750000  0.06250000  0.00000000       0.010
  -0.25000000 -0.18750000  0.00000000       0.010
  -0.06250000 -0.25000000  0.00000000       0.010
  -0.25000000 -0.06250000  0.00000000       0.010
  -0.06250000  0.18750000  0.00000000       0.010
   0.18750000  0.25000000  0.00000000       0.010
  -0.06250000  0.06250000  0.00000000       0.010
  -0.12500000 -0.06250000  0.00000000       0.010
  -0.06250000 -0.12500000  0.00000000       0.010
   0.18750000  0.18750000  0.00000000       0.010
   0.00000000  0.18750000  0.00000000       0.010
  -0.18750000  0.00000000  0.00000000       0.010
   0.31250000  0.18750000  0.00000000       0.010
   0.12500000  0.31250000  0.00000000       0.010
  -0.18750000  0.12500000  0.00000000       0.010
   0.12500000 -0.18750000  0.00000000       0.010
  -0.18750000 -0.31250000  0.00000000       0.010
  -0.31250000 -0.12500000  0.00000000       0.010
   0.43750000  0.18750000  0.00000000       0.010
   0.25000000  0.43750000  0.00000000       0.010
  -0.18750000  0.25000000  0.00000000       0.010
   0.25000000 -0.18750000  0.00000000       0.010
  -0.18750000 -0.43750000  0.00000000       0.010
  -0.43750000 -0.25000000  0.00000000       0.010
  -0.43750000  0.18750000  0.00000000       0.010
   0.37500000 -0.43750000  0.00000000       0.010
  -0.18750000  0.37500000  0.00000000       0.010
   0.37500000 -0.18750000  0.00000000       0.010
  -0.18750000  0.43750000  0.00000000       0.010
   0.43750000 -0.37500000  0.00000000       0.010
  -0.31250000  0.18750000  0.00000000       0.010
   0.50000000 -0.31250000  0.00000000       0.010
  -0.18750000  0.50000000  0.00000000       0.010
   0.50000000 -0.18750000  0.00000000       0.010
  -0.18750000  0.31250000  0.00000000       0.010
   0.31250000  0.50000000  0.00000000       0.010
  -0.18750000  0.18750000  0.00000000       0.010
  -0.37500000 -0.18750000  0.00000000       0.010
  -0.18750000 -0.37500000  0.00000000       0.010
   0.31250000  0.31250000  0.00000000       0.010
   0.00000000  0.31250000  0.00000000       0.010
  -0.31250000  0.00000000  0.00000000       0.010
   0.43750000  0.31250000  0.00000000       0.010
   0.12500000  0.43750000  0.00000000       0.010
  -0.31250000  0.12500000  0.00000000       0.010
   0.12500000 -0.31250000  0.00000000       0.010
  -0.31250000 -0.43750000  0.00000000       0.010
  -0.43750000 -0.12500000  0.00000000       0.010
  -0.43750000  0.31250000  0.00000000       0.010
   0.25000000 -0.43750000  0.00000000       0.010
  -0.31250000  0.25000000  0.00000000       0.010
   0.25000000 -0.31250000  0.00000000       0.010
  -0.31250000  0.43750000  0.00000000       0.010
   0.43750000 -0.25000000  0.00000000       0.010
  -0.31250000  0.31250000  0.00000000       0.010
   0.37500000 -0.31250000  0.00000000       0.010
  -0.31250000  0.37500000  0.00000000       0.010
   0.43750000  0.43750000  0.00000000       0.010
   0.00000000  0.43750000  0.00000000       0.010
  -0.43750000 -0.00000000  0.00000000       0.010
  -0.43750000  0.43750000  0.00000000       0.010
   0.12500000 -0.43750000  0.00000000       0.010
  -0.43750000  0.12500000  0.00000000       0.010
 
 position of ions in fractional coordinates (direct lattice) 
   0.33865719  0.33653694  0.54421247
   0.99654131  0.98200101  0.69867488
   0.04611278  0.26048179  0.65647134
   0.87691220  0.19343300  0.71209906
   0.89825238  0.85994800  0.70725733
   0.21301894  0.88220564  0.71000282
   0.50018089  0.00511184  0.39429036
   0.50514416  0.50150860  0.61860682
   0.00560370  0.50622903  0.62036782
   0.50977050  0.99806172  0.61878177
   0.00344512  0.99589709  0.63078680
   0.00167450  0.00408733  0.39456289
   0.84040108  0.33451347  0.54526541
   0.66955091  0.67213343  0.46962411
   0.16884804  0.67231159  0.47055225
   0.66939657  0.17281857  0.46967056
   0.16967093  0.17152319  0.47036493
   0.49943333  0.50496366  0.39399991
   0.00190642  0.50396420  0.39428986
   0.33503350  0.83908930  0.54553709
   0.84155436  0.83882501  0.54580136
 
 position of ions in cartesian coordinates  (Angst):
   2.81742146  1.61983552 16.76553154
   8.26754812  4.72661376 21.52404872
   0.98014889  1.25376327 20.22388612
   5.41129134  0.93104088 21.93760712
   7.38209534  4.13914242 21.78844802
   3.63551668  4.24627395 21.87302822
   2.79414044  0.02460456 12.14688713
   4.20117727  2.41388492 19.05739550
   1.43791946  2.43660553 19.11164627
   5.60677603  4.80391793 19.06278511
   2.78667545  4.79349903 19.43262359
   0.02066505  0.01967331 12.15528297
   5.60042040  1.61009609 16.79796964
   5.58908129  3.23514446 14.46769100
   2.80674027  3.23600199 14.49628404
   4.20066260  0.83181851 14.46912197
   1.41965800  0.82558352 14.49051342
   4.17903865  2.43051498 12.13793946
   1.41107668  2.42570433 12.14687185
   4.19383920  4.03874434 16.80633928
   7.00827642  4.03747226 16.81448054
 


--------------------------------------------------------------------------------------------------------


 k-point  1 :   0.0625 0.0625 0.0000  plane waves:   12325
 k-point  2 :   0.0000 0.0625 0.0000  plane waves:   12325
 k-point  3 :  -0.0625 0.0000 0.0000  plane waves:   12325
 k-point  4 :   0.1875 0.0625 0.0000  plane waves:   12294
 k-point  5 :   0.1250 0.1875 0.0000  plane waves:   12294
 k-point  6 :  -0.0625 0.1250 0.0000  plane waves:   12294
 k-point  7 :   0.1250-0.0625 0.0000  plane waves:   12294
 k-point  8 :  -0.0625-0.1875 0.0000  plane waves:   12294
 k-point  9 :  -0.1875-0.1250 0.0000  plane waves:   12294
 k-point 10 :   0.3125 0.0625 0.0000  plane waves:   12263
 k-point 11 :   0.2500 0.3125 0.0000  plane waves:   12263
 k-point 12 :  -0.0625 0.2500 0.0000  plane waves:   12263
 k-point 13 :   0.2500-0.0625 0.0000  plane waves:   12263
 k-point 14 :  -0.0625-0.3125 0.0000  plane waves:   12263
 k-point 15 :  -0.3125-0.2500 0.0000  plane waves:   12263
 k-point 16 :   0.4375 0.0625 0.0000  plane waves:   12221
 k-point 17 :   0.3750 0.4375 0.0000  plane waves:   12221
 k-point 18 :  -0.0625 0.3750 0.0000  plane waves:   12221
 k-point 19 :   0.3750-0.0625 0.0000  plane waves:   12221
 k-point 20 :  -0.0625-0.4375 0.0000  plane waves:   12221
 k-point 21 :  -0.4375-0.3750 0.0000  plane waves:   12221
 k-point 22 :  -0.4375 0.0625 0.0000  plane waves:   12211
 k-point 23 :   0.5000-0.4375 0.0000  plane waves:   12211
 k-point 24 :  -0.0625 0.5000 0.0000  plane waves:   12211
 k-point 25 :   0.5000-0.0625 0.0000  plane waves:   12211
 k-point 26 :  -0.0625 0.4375 0.0000  plane waves:   12211
 k-point 27 :   0.4375 0.5000 0.0000  plane waves:   12211
 k-point 28 :  -0.3125 0.0625 0.0000  plane waves:   12242
 k-point 29 :  -0.3750-0.3125 0.0000  plane waves:   12242
 k-point 30 :  -0.0625-0.3750 0.0000  plane waves:   12242
 k-point 31 :  -0.3750-0.0625 0.0000  plane waves:   12242
 k-point 32 :  -0.0625 0.3125 0.0000  plane waves:   12242
 k-point 33 :   0.3125 0.3750 0.0000  plane waves:   12242
 k-point 34 :  -0.1875 0.0625 0.0000  plane waves:   12280
 k-point 35 :  -0.2500-0.1875 0.0000  plane waves:   12280
 k-point 36 :  -0.0625-0.2500 0.0000  plane waves:   12280
 k-point 37 :  -0.2500-0.0625 0.0000  plane waves:   12280
 k-point 38 :  -0.0625 0.1875 0.0000  plane waves:   12280
 k-point 39 :   0.1875 0.2500 0.0000  plane waves:   12280
 k-point 40 :  -0.0625 0.0625 0.0000  plane waves:   12329
 k-point 41 :  -0.1250-0.0625 0.0000  plane waves:   12329
 k-point 42 :  -0.0625-0.1250 0.0000  plane waves:   12329
 k-point 43 :   0.1875 0.1875 0.0000  plane waves:   12277
 k-point 44 :   0.0000 0.1875 0.0000  plane waves:   12277
 k-point 45 :  -0.1875 0.0000 0.0000  plane waves:   12277
 k-point 46 :   0.3125 0.1875 0.0000  plane waves:   12288
 k-point 47 :   0.1250 0.3125 0.0000  plane waves:   12288
 k-point 48 :  -0.1875 0.1250 0.0000  plane waves:   12288
 k-point 49 :   0.1250-0.1875 0.0000  plane waves:   12288
 k-point 50 :  -0.1875-0.3125 0.0000  plane waves:   12288
 k-point 51 :  -0.3125-0.1250 0.0000  plane waves:   12288
 k-point 52 :   0.4375 0.1875 0.0000  plane waves:   12234
 k-point 53 :   0.2500 0.4375 0.0000  plane waves:   12234
 k-point 54 :  -0.1875 0.2500 0.0000  plane waves:   12234
 k-point 55 :   0.2500-0.1875 0.0000  plane waves:   12234
 k-point 56 :  -0.1875-0.4375 0.0000  plane waves:   12234
 k-point 57 :  -0.4375-0.2500 0.0000  plane waves:   12234
 k-point 58 :  -0.4375 0.1875 0.0000  plane waves:   12216
 k-point 59 :   0.3750-0.4375 0.0000  plane waves:   12216
 k-point 60 :  -0.1875 0.3750 0.0000  plane waves:   12216
 k-point 61 :   0.3750-0.1875 0.0000  plane waves:   12216
 k-point 62 :  -0.1875 0.4375 0.0000  plane waves:   12216
 k-point 63 :   0.4375-0.3750 0.0000  plane waves:   12216
 k-point 64 :  -0.3125 0.1875 0.0000  plane waves:   12215
 k-point 65 :   0.5000-0.3125 0.0000  plane waves:   12215
 k-point 66 :  -0.1875 0.5000 0.0000  plane waves:   12215
 k-point 67 :   0.5000-0.1875 0.0000  plane waves:   12215
 k-point 68 :  -0.1875 0.3125 0.0000  plane waves:   12215
 k-point 69 :   0.3125 0.5000 0.0000  plane waves:   12215
 k-point 70 :  -0.1875 0.1875 0.0000  plane waves:   12289
 k-point 71 :  -0.3750-0.1875 0.0000  plane waves:   12289
 k-point 72 :  -0.1875-0.3750 0.0000  plane waves:   12289
 k-point 73 :   0.3125 0.3125 0.0000  plane waves:   12275
 k-point 74 :   0.0000 0.3125 0.0000  plane waves:   12275
 k-point 75 :  -0.3125 0.0000 0.0000  plane waves:   12275
 k-point 76 :   0.4375 0.3125 0.0000  plane waves:   12239
 k-point 77 :   0.1250 0.4375 0.0000  plane waves:   12239
 k-point 78 :  -0.3125 0.1250 0.0000  plane waves:   12239
 k-point 79 :   0.1250-0.3125 0.0000  plane waves:   12239
 k-point 80 :  -0.3125-0.4375 0.0000  plane waves:   12239
 k-point 81 :  -0.4375-0.1250 0.0000  plane waves:   12239
 k-point 82 :  -0.4375 0.3125 0.0000  plane waves:   12235
 k-point 83 :   0.2500-0.4375 0.0000  plane waves:   12235
 k-point 84 :  -0.3125 0.2500 0.0000  plane waves:   12235
 k-point 85 :   0.2500-0.3125 0.0000  plane waves:   12235
 k-point 86 :  -0.3125 0.4375 0.0000  plane waves:   12235
 k-point 87 :   0.4375-0.2500 0.0000  plane waves:   12235
 k-point 88 :  -0.3125 0.3125 0.0000  plane waves:   12232
 k-point 89 :   0.3750-0.3125 0.0000  plane waves:   12232
 k-point 90 :  -0.3125 0.3750 0.0000  plane waves:   12232
 k-point 91 :   0.4375 0.4375 0.0000  plane waves:   12200
 k-point 92 :   0.0000 0.4375 0.0000  plane waves:   12200
 k-point 93 :  -0.4375-0.0000 0.0000  plane waves:   12200
 k-point 94 :  -0.4375 0.4375 0.0000  plane waves:   12214
 k-point 95 :   0.1250-0.4375 0.0000  plane waves:   12214
 k-point 96 :  -0.4375 0.1250 0.0000  plane waves:   12214

 maximum and minimum number of plane-waves per node :      3101     2992

 maximum number of plane-waves:     12329
 maximum index in each direction: 
   IXMAX=    8   IYMAX=    8   IZMAX=   46
   IXMIN=   -8   IYMIN=   -8   IZMIN=  -46


 real space projection operators:
  total allocation   :       5100.03 KBytes
  max/ min on nodes  :       1278.54       1271.13


 parallel 3D FFT for wavefunctions:
    minimum data exchange during FFTs selected (reduces bandwidth)
 parallel 3D FFT for charge:
    minimum data exchange during FFTs selected (reduces bandwidth)


 total amount of memory used by VASP MPI-rank0   164315. kBytes
=======================================================================

   base      :      30000. kBytes
   nonlr-proj:       2362. kBytes
   fftplans  :       2967. kBytes
   grid      :       6321. kBytes
   one-center:         93. kBytes
   wavefun   :     122572. kBytes
 
     INWAV:  cpu time    0.0000: real time    0.0000
 Broyden mixing: mesh for mixing (old mesh)
   NGX = 17   NGY = 17   NGZ = 93
  (NGX  = 56   NGY  = 56   NGZ  =288)
  gives a total of  26877 points

 initial charge density was supplied:
 charge density of overlapping atoms calculated
 number of electron     168.0000000 magnetization 
 keeping initial charge density in first step


--------------------------------------------------------------------------------------------------------


 Maximum index for non-local projection operator          542
 Maximum index for augmentation-charges          716 (set IRDMAX)


--------------------------------------------------------------------------------------------------------


 First call to EWALD:  gamma=   0.189
 Maximum number of real-space cells 5x 5x 1
 Maximum number of reciprocal cells 2x 2x 8

    FEWALD:  cpu time    0.0013: real time    0.0013


--------------------------------------- Iteration      1(   1)  ---------------------------------------


    POTLOK:  cpu time    0.0261: real time    0.0343
    SETDIJ:  cpu time    0.0035: real time    0.0036
     EDDAV:  cpu time   14.4367: real time   14.4536
       DOS:  cpu time    0.0079: real time    0.0079
    --------------------------------------------
      LOOP:  cpu time   14.4742: real time   14.4994

 eigenvalue-minimisations  : 19296
 total energy-change (2. order) : 0.1029634E+04  (-0.5832190E+04)
 number of electron     168.0000000 magnetization 
 augmentation part      168.0000000 magnetization 

 Free energy of the ion-electron system (eV)
  ---------------------------------------------------
  alpha Z        PSCENC =       324.87461712
  Ewald energy   TEWEN  =    101150.56279700
  -Hartree energ DENC   =   -113437.84813376
  -exchange      EXHF   =         0.00000000
  -V(xc)+E(xc)   XCENC  =        69.30942125
  PAW double counting   =     11288.27476651   -10829.50941267
  entropy T*S    EENTRO =        -0.00040494
  eigenvalues    EBANDS =       573.33331951
  atomic energy  EATOM  =     11890.63736546
  Solvation  Ediel_sol  =         0.00000000
  ---------------------------------------------------
  free energy    TOTEN  =      1029.63433547 eV

  energy without entropy =     1029.63474041  energy(sigma->0) =     1029.63447045


--------------------------------------------------------------------------------------------------------




--------------------------------------- Iteration      1(   2)  ---------------------------------------


     EDDAV:  cpu time   17.1718: real time   17.1838
       DOS:  cpu time    0.0084: real time    0.0084
    --------------------------------------------
      LOOP:  cpu time   17.1802: real time   17.1922

 eigenvalue-minimisations  : 24032
 total energy-change (2. order) :-0.1058642E+04  (-0.9845196E+03)
 number of electron     168.0000000 magnetization 
 augmentation part      168.0000000 magnetization 

 Free energy of the ion-electron system (eV)
  ---------------------------------------------------
  alpha Z        PSCENC =       324.87461712
  Ewald energy   TEWEN  =    101150.56279700
  -Hartree energ DENC   =   -113437.84813376
  -exchange      EXHF   =         0.00000000
  -V(xc)+E(xc)   XCENC  =        69.30942125
  PAW double counting   =     11288.27476651   -10829.50941267
  entropy T*S    EENTRO =        -0.00039332
  eigenvalues    EBANDS =      -485.30833643
  atomic energy  EATOM  =     11890.63736546
  Solvation  Ediel_sol  =         0.00000000
  ---------------------------------------------------
  free energy    TOTEN  =       -29.00730885 eV

  energy without entropy =      -29.00691552  energy(sigma->0) =      -29.00717774


--------------------------------------------------------------------------------------------------------




--------------------------------------- Iteration      1(   3)  ---------------------------------------


     EDDAV:  cpu time   16.6299: real time   16.6407
       DOS:  cpu time    0.0089: real time    0.0089
    --------------------------------------------
      LOOP:  cpu time   16.6389: real time   16.6496

 eigenvalue-minimisations  : 23144
 total energy-change (2. order) :-0.9174643E+02  (-0.8488208E+02)
 number of electron     168.0000000 magnetization 
 augmentation part      168.0000000 magnetization 

 Free energy of the ion-electron system (eV)
  ---------------------------------------------------
  alpha Z        PSCENC =       324.87461712
  Ewald energy   TEWEN  =    101150.56279700
  -Hartree energ DENC   =   -113437.84813376
  -exchange      EXHF   =         0.00000000
  -V(xc)+E(xc)   XCENC  =        69.30942125
  PAW double counting   =     11288.27476651   -10829.50941267
  entropy T*S    EENTRO =        -0.00382735
  eigenvalues    EBANDS =      -577.05133491
  atomic energy  EATOM  =     11890.63736546
  Solvation  Ediel_sol  =         0.00000000
  ---------------------------------------------------
  free energy    TOTEN  =      -120.75374136 eV

  energy without entropy =     -120.74991401  energy(sigma->0) =     -120.75246558


--------------------------------------------------------------------------------------------------------




--------------------------------------- Iteration      1(   4)  ---------------------------------------


     EDDAV:  cpu time   17.9772: real time   17.9792
       DOS:  cpu time    0.0087: real time    0.0087
    --------------------------------------------
      LOOP:  cpu time   17.9859: real time   17.9880

 eigenvalue-minimisations  : 25588
 total energy-change (2. order) :-0.4374513E+01  (-0.4170954E+01)
 number of electron     168.0000000 magnetization 
 augmentation part      168.0000000 magnetization 

 Free energy of the ion-electron system (eV)
  ---------------------------------------------------
  alpha Z        PSCENC =       324.87461712
  Ewald energy   TEWEN  =    101150.56279700
  -Hartree energ DENC   =   -113437.84813376
  -exchange      EXHF   =         0.00000000
  -V(xc)+E(xc)   XCENC  =        69.30942125
  PAW double counting   =     11288.27476651   -10829.50941267
  entropy T*S    EENTRO =        -0.00933912
  eigenvalues    EBANDS =      -581.42033641
  atomic energy  EATOM  =     11890.63736546
  Solvation  Ediel_sol  =         0.00000000
  ---------------------------------------------------
  free energy    TOTEN  =      -125.12825463 eV

  energy without entropy =     -125.11891551  energy(sigma->0) =     -125.12514159


--------------------------------------------------------------------------------------------------------




--------------------------------------- Iteration      1(   5)  ---------------------------------------


     EDDAV:  cpu time   17.9983: real time   18.0052
       DOS:  cpu time    0.0089: real time    0.0089
    CHARGE:  cpu time    0.7118: real time    0.7119
    MIXING:  cpu time    0.0011: real time    0.0011
    --------------------------------------------
      LOOP:  cpu time   18.7202: real time   18.7270

 eigenvalue-minimisations  : 25600
 total energy-change (2. order) :-0.1310115E+00  (-0.1299800E+00)
 number of electron     167.9999973 magnetization 
 augmentation part       46.9526245 magnetization 

 Broyden mixing:
  rms(total) = 0.43580E+01    rms(broyden)= 0.43577E+01
  rms(prec ) = 0.44044E+01
  weight for this iteration     100.00

 Free energy of the ion-electron system (eV)
  ---------------------------------------------------
  alpha Z        PSCENC =       324.87461712
  Ewald energy   TEWEN  =    101150.56279700
  -Hartree energ DENC   =   -113437.84813376
  -exchange      EXHF   =         0.00000000
  -V(xc)+E(xc)   XCENC  =        69.30942125
  PAW double counting   =     11288.27476651   -10829.50941267
  entropy T*S    EENTRO =        -0.00951376
  eigenvalues    EBANDS =      -581.55117327
  atomic energy  EATOM  =     11890.63736546
  Solvation  Ediel_sol  =         0.00000000
  ---------------------------------------------------
  free energy    TOTEN  =      -125.25926613 eV

  energy without entropy =     -125.24975237  energy(sigma->0) =     -125.25609488


--------------------------------------------------------------------------------------------------------




--------------------------------------- Iteration      1(   6)  ---------------------------------------


    POTLOK:  cpu time    0.0234: real time    0.0239
    SETDIJ:  cpu time    0.0035: real time    0.0035
     EDDAV:  cpu time   16.8134: real time   16.8149
       DOS:  cpu time    0.0101: real time    0.0101
    CHARGE:  cpu time    0.7267: real time    0.7268
    MIXING:  cpu time    0.0012: real time    0.0012
    --------------------------------------------
      LOOP:  cpu time   17.5784: real time   17.5804

 eigenvalue-minimisations  : 23324
 total energy-change (2. order) : 0.7262653E+01  (-0.3450773E+01)
 number of electron     167.9999971 magnetization 
 augmentation part       49.8957895 magnetization 

 Broyden mixing:
  rms(total) = 0.32083E+01    rms(broyden)= 0.32081E+01
  rms(prec ) = 0.33102E+01
  weight for this iteration     100.00

 eigenvalues of (default mixing * dielectric matrix)
  average eigenvalue GAMMA=   1.1908
  1.1908

 Free energy of the ion-electron system (eV)
  ---------------------------------------------------
  alpha Z        PSCENC =       324.87461712
  Ewald energy   TEWEN  =    101150.56279700
  -Hartree energ DENC   =   -113213.73927974
  -exchange      EXHF   =         0.00000000
  -V(xc)+E(xc)   XCENC  =        66.12096182
  PAW double counting   =     12554.45836374   -12119.55328516
  entropy T*S    EENTRO =        -0.02049866
  eigenvalues    EBANDS =      -771.33765435
  atomic energy  EATOM  =     11890.63736546
  Solvation  Ediel_sol  =         0.00000000
  ---------------------------------------------------
  free energy    TOTEN  =      -117.99661277 eV

  energy without entropy =     -117.97611411  energy(sigma->0) =     -117.98977988


--------------------------------------------------------------------------------------------------------




--------------------------------------- Iteration      1(   7)  ---------------------------------------


    POTLOK:  cpu time    0.0222: real time    0.0239
    SETDIJ:  cpu time    0.0034: real time    0.0034
     EDDAV:  cpu time   16.8054: real time   16.8076
       DOS:  cpu time    0.0095: real time    0.0095
    CHARGE:  cpu time    0.7151: real time    0.7152
    MIXING:  cpu time    0.0011: real time    0.0011
    --------------------------------------------
      LOOP:  cpu time   17.5566: real time   17.5607

 eigenvalue-minimisations  : 23280
 total energy-change (2. order) :-0.2237550E+02  (-0.9802556E+01)
 number of electron     167.9999971 magnetization 
 augmentation part       48.9738105 magnetization 

 Broyden mixing:
  rms(total) = 0.44829E+01    rms(broyden)= 0.44827E+01
  rms(prec ) = 0.50870E+01
  weight for this iteration     100.00

 eigenvalues of (default mixing * dielectric matrix)
  average eigenvalue GAMMA=   1.1171
  1.9689  0.2654

 Free energy of the ion-electron system (eV)
  ---------------------------------------------------
  alpha Z        PSCENC =       324.87461712
  Ewald energy   TEWEN  =    101150.56279700
  -Hartree energ DENC   =   -113390.63683534
  -exchange      EXHF   =         0.00000000
  -V(xc)+E(xc)   XCENC  =        65.61183895
  PAW double counting   =     13562.35613105   -13136.82342954
  entropy T*S    EENTRO =         0.01891826
  eigenvalues    EBANDS =      -606.97351961
  atomic energy  EATOM  =     11890.63736546
  Solvation  Ediel_sol  =         0.00000000
  ---------------------------------------------------
  free energy    TOTEN  =      -140.37211665 eV

  energy without entropy =     -140.39103490  energy(sigma->0) =     -140.37842273


--------------------------------------------------------------------------------------------------------




--------------------------------------- Iteration      1(   8)  ---------------------------------------


    POTLOK:  cpu time    0.0223: real time    0.0224
    SETDIJ:  cpu time    0.0035: real time    0.0035
     EDDAV:  cpu time   17.4554: real time   17.4570
       DOS:  cpu time    0.0100: real time    0.0100
    CHARGE:  cpu time    0.7120: real time    0.7120
    MIXING:  cpu time    0.0013: real time    0.0013
    --------------------------------------------
      LOOP:  cpu time   18.2045: real time   18.2062

 eigenvalue-minimisations  : 24616
 total energy-change (2. order) : 0.1523461E+02  (-0.6465392E+01)
 number of electron     167.9999957 magnetization 
 augmentation part       50.5771708 magnetization 

 Broyden mixing:
  rms(total) = 0.28872E+01    rms(broyden)= 0.28871E+01
  rms(prec ) = 0.34781E+01
  weight for this iteration     100.00

 eigenvalues of (default mixing * dielectric matrix)
  average eigenvalue GAMMA=   0.8985
  2.0986  0.2985  0.2985

 Free energy of the ion-electron system (eV)
  ---------------------------------------------------
  alpha Z        PSCENC =       324.87461712
  Ewald energy   TEWEN  =    101150.56279700
  -Hartree energ DENC   =   -113272.95225693
  -exchange      EXHF   =         0.00000000
  -V(xc)+E(xc)   XCENC  =        65.11060418
  PAW double counting   =     14522.77418117   -14107.45330255
  entropy T*S    EENTRO =        -0.01209313
  eigenvalues    EBANDS =      -698.67942054
  atomic energy  EATOM  =     11890.63736546
  Solvation  Ediel_sol  =         0.00000000
[...]
     21      -5.2005      2.00000
     22      -5.0558      2.00000
     23      -5.0061      2.00000
     24      -4.9012      2.00000
     25      -4.8164      2.00000
     26      -4.7448      2.00000
     27      -4.6578      2.00000
     28      -4.6316      2.00000
     29      -4.6162      2.00000
     30      -4.5369      2.00000
     31      -4.4822      2.00000
     32      -4.4348      2.00000
     33      -4.2886      2.00000
     34      -4.1720      2.00000
     35      -4.1091      2.00000
     36      -4.0116      2.00000
     37      -3.9767      2.00000
     38      -3.9311      2.00000
     39      -3.8940      2.00000
     40      -3.8188      2.00000
     41      -3.7253      2.00000
     42      -3.6050      2.00000
     43      -3.5885      2.00000
     44      -3.5031      2.00000
     45      -3.4602      2.00000
     46      -3.3805      2.00000
     47      -3.3111      2.00000
     48      -3.2293      2.00000
     49      -3.1948      2.00000
     50      -3.1541      2.00000
     51      -3.0828      2.00000
     52      -3.0637      2.00000
     53      -2.9593      2.00000
     54      -2.8796      2.00000
     55      -2.8070      2.00000
     56      -2.7265      2.00000
     57      -2.6089      2.00000
     58      -2.5240      2.00000
     59      -2.4150      2.00000
     60      -2.3304      2.00000
     61      -2.2874      2.00000
     62      -2.1883      2.00000
     63      -2.1672      2.00000
     64      -2.0600      2.00000
     65      -2.0112      2.00000
     66      -1.9300      2.00000
     67      -1.8413      2.00000
     68      -1.8082      2.00000
     69      -1.6960      2.00000
     70      -1.6697      2.00000
     71      -1.5417      2.00000
     72      -1.5019      2.00000
     73      -1.4569      2.00000
     74      -1.3890      2.00000
     75      -1.3212      2.00000
     76      -1.2756      2.00000
     77      -1.0629      2.00000
     78      -0.9761      2.00001
     79      -0.9375      2.00003
     80      -0.8240      2.00065
     81      -0.7230      2.00629
     82      -0.5796      2.05126
     83      -0.5113      2.07077
     84      -0.4437      2.00969
     85      -0.3354      1.51742
     86      -0.2552      0.86938
     87      -0.1646      0.22739
     88      -0.0914     -0.02152
     89       0.0505     -0.04557
     90       0.6400     -0.00000
     91       0.8855     -0.00000
     92       1.1541     -0.00000
     93       1.6776     -0.00000
     94       1.9758     -0.00000
     95       2.7195     -0.00000
     96       2.8118     -0.00000
     97       3.3900     -0.00000
     98       3.8742     -0.00000
     99       4.2081     -0.00000
    100       4.4973     -0.00000

 k-point    96 :      -0.4375    0.1250    0.0000
  band No.  band energies     occupation 
      1     -12.6462      2.00000
      2      -8.1195      2.00000
      3      -7.7797      2.00000
      4      -7.5190      2.00000
      5      -6.7602      2.00000
      6      -6.5405      2.00000
      7      -6.3307      2.00000
      8      -6.1466      2.00000
      9      -6.0492      2.00000
     10      -5.9545      2.00000
     11      -5.8418      2.00000
     12      -5.7803      2.00000
     13      -5.7139      2.00000
     14      -5.6872      2.00000
     15      -5.6531      2.00000
     16      -5.5856      2.00000
     17      -5.5464      2.00000
     18      -5.3849      2.00000
     19      -5.2455      2.00000
     20      -5.2060      2.00000
     21      -5.1456      2.00000
     22      -5.0403      2.00000
     23      -4.9609      2.00000
     24      -4.8247      2.00000
     25      -4.7668      2.00000
     26      -4.7014      2.00000
     27      -4.6660      2.00000
     28      -4.6246      2.00000
     29      -4.5503      2.00000
     30      -4.5129      2.00000
     31      -4.4781      2.00000
     32      -4.3521      2.00000
     33      -4.2610      2.00000
     34      -4.1791      2.00000
     35      -4.1057      2.00000
     36      -4.0131      2.00000
     37      -3.9749      2.00000
     38      -3.9428      2.00000
     39      -3.8980      2.00000
     40      -3.8020      2.00000
     41      -3.7476      2.00000
     42      -3.6685      2.00000
     43      -3.5861      2.00000
     44      -3.5507      2.00000
     45      -3.4801      2.00000
     46      -3.4343      2.00000
     47      -3.3354      2.00000
     48      -3.2616      2.00000
     49      -3.2120      2.00000
     50      -3.1294      2.00000
     51      -3.1021      2.00000
     52      -3.0464      2.00000
     53      -2.9632      2.00000
     54      -2.8671      2.00000
     55      -2.7875      2.00000
     56      -2.6924      2.00000
     57      -2.5794      2.00000
     58      -2.4825      2.00000
     59      -2.3688      2.00000
     60      -2.3505      2.00000
     61      -2.2626      2.00000
     62      -2.2079      2.00000
     63      -2.1715      2.00000
     64      -2.0797      2.00000
     65      -2.0364      2.00000
     66      -1.9111      2.00000
     67      -1.8324      2.00000
     68      -1.7809      2.00000
     69      -1.6818      2.00000
     70      -1.6426      2.00000
     71      -1.5824      2.00000
     72      -1.5112      2.00000
     73      -1.4772      2.00000
     74      -1.3999      2.00000
     75      -1.3269      2.00000
     76      -1.2175      2.00000
     77      -1.0729      2.00000
     78      -1.0091      2.00000
     79      -0.9601      2.00001
     80      -0.8363      2.00047
     81      -0.6905      2.01146
     82      -0.6584      2.01940
     83      -0.5160      2.07091
     84      -0.4017      1.88638
     85      -0.3179      1.38732
     86      -0.2460      0.79281
     87      -0.1737      0.27669
     88      -0.0044     -0.06789
     89       0.0884     -0.02921
     90       0.5436     -0.00000
     91       0.8469     -0.00000
     92       1.1406     -0.00000
     93       1.6546     -0.00000
     94       1.8504     -0.00000
     95       2.5669     -0.00000
     96       2.8159     -0.00000
     97       3.4189     -0.00000
     98       3.7895     -0.00000
     99       4.2547     -0.00000
    100       4.3902     -0.00000


--------------------------------------------------------------------------------------------------------


 soft charge-density along one line, spin component           1
         0         1         2         3         4         5         6         7         8         9
 total charge-density along one line
 
 pseudopotential strength for first ion, spin component:           1
 -7.926   0.000  -0.001  -0.010   0.000  -8.075   0.000  -0.001
  0.000  -7.906   0.000   0.001  -0.008   0.000  -8.055   0.000
 -0.001   0.000  -7.918  -0.002  -0.001  -0.001   0.000  -8.067
 -0.010   0.001  -0.002  -7.905  -0.001  -0.009   0.001  -0.002
  0.000  -0.008  -0.001  -0.001  -7.925   0.000  -0.008  -0.001
 -8.075   0.000  -0.001  -0.009   0.000  -8.208   0.000  -0.001
  0.000  -8.055   0.000   0.001  -0.008   0.000  -8.189   0.000
 -0.001   0.000  -8.067  -0.002  -0.001  -0.001   0.000  -8.200
 -0.009   0.001  -0.002  -8.054  -0.001  -0.009   0.001  -0.002
  0.000  -0.008  -0.001  -0.001  -8.074   0.000  -0.008  -0.001
 -0.000   0.000  -0.002   0.001  -0.000  -0.000   0.000  -0.002
 -0.000   0.000  -0.003   0.001  -0.001  -0.000   0.000  -0.003
  0.000   0.000   0.000  -0.000   0.000   0.000   0.000   0.000
 -0.000   0.000  -0.000   0.000  -0.000  -0.000   0.000  -0.000
 -0.000  -0.000  -0.000   0.000   0.000  -0.000  -0.000  -0.000
  0.000  -0.000   0.000   0.000   0.000   0.000  -0.000   0.000
  0.000   0.000  -0.001   0.000  -0.000   0.000   0.000  -0.001
 -0.000   0.000  -0.000  -0.000   0.000  -0.000   0.000  -0.000
 total augmentation occupancy for first ion, spin component:           1
  6.068   0.082  -0.022   0.080   0.022  -4.077  -0.072   0.015  -0.216  -0.019  -0.012   0.003   0.004  -0.005   0.018   0.000
  0.082   6.266   0.023   0.056   0.139  -0.072  -4.076  -0.018  -0.053  -0.265   0.004   0.001  -0.009  -0.002  -0.002   0.001
 -0.022   0.023   6.294  -0.048  -0.030   0.015  -0.018  -4.347   0.021   0.023   0.061  -0.023   0.002   0.029  -0.010   0.000
  0.080   0.056  -0.048   6.225   0.042  -0.215  -0.053   0.021  -4.038  -0.042  -0.051   0.005  -0.005  -0.015   0.001  -0.000
  0.022   0.139  -0.030   0.042   6.135  -0.019  -0.265   0.023  -0.042  -4.130   0.010  -0.002   0.016   0.001  -0.000  -0.000
 -4.077  -0.072   0.015  -0.215  -0.019   3.992   0.064  -0.010   0.319   0.016   0.014  -0.005  -0.004   0.004  -0.018   0.000
 -0.072  -4.076  -0.018  -0.053  -0.265   0.064   3.832   0.014   0.051   0.361  -0.005   0.000   0.003   0.002   0.002  -0.000
  0.015  -0.018  -4.347   0.021   0.023  -0.010   0.014   4.294   0.001  -0.018  -0.060   0.017  -0.002  -0.031   0.010  -0.000
 -0.216  -0.053   0.021  -4.038  -0.042   0.319   0.051   0.001   3.798   0.043   0.049  -0.008   0.004   0.014  -0.005  -0.000
 -0.019  -0.265   0.023  -0.042  -4.130   0.016   0.361  -0.018   0.043   4.034  -0.007   0.001  -0.017  -0.002  -0.000   0.000
 -0.012   0.004   0.061  -0.051   0.010   0.014  -0.005  -0.060   0.049  -0.007   3.039  -0.828   0.001  -0.012  -0.000  -0.000
  0.003   0.001  -0.023   0.005  -0.002  -0.005   0.000   0.017  -0.008   0.001  -0.828   0.250  -0.000   0.000  -0.001   0.000
  0.004  -0.009   0.002  -0.005   0.016  -0.004   0.003  -0.002   0.004  -0.017   0.001  -0.000   0.251  -0.000   0.000  -0.009
 -0.005  -0.002   0.029  -0.015   0.001   0.004   0.002  -0.031   0.014  -0.002  -0.012   0.000  -0.000   0.245   0.003   0.000
  0.018  -0.002  -0.010   0.001  -0.000  -0.018   0.002   0.010  -0.005  -0.000  -0.000  -0.001   0.000   0.003   0.250  -0.000
  0.000   0.001   0.000  -0.000  -0.000   0.000  -0.000  -0.000  -0.000   0.000  -0.000   0.000  -0.009   0.000  -0.000   0.000
 -0.000   0.000  -0.001   0.000  -0.000   0.000  -0.000   0.001  -0.000   0.000   0.001  -0.000   0.000  -0.008  -0.000  -0.000
 -0.000  -0.000  -0.000   0.000   0.000   0.000   0.000  -0.000   0.000  -0.000   0.000  -0.000  -0.000  -0.000  -0.008   0.000


------------------------ aborting loop because EDIFF is reached ----------------------------------------



 DIPCOR: dipole corrections for dipol
 direction  3 min pos    21,
 dipolmoment           0.000000      0.000000     -0.261978 electrons x Angstroem
 Tr[quadrupol]      -944.975601

 energy correction for charged system         0.000000 eV
 dipol+quadrupol energy correction            0.007535 eV
 added-field ion interaction          0.000000 eV  (added to PSCEN)

 
  *************** adding dipol energy to TOTEN NOW **************** 
    CHARGE:  cpu time    0.7137: real time    0.7138
    FORLOC:  cpu time    0.0070: real time    0.0070
    FORNL :  cpu time    3.2350: real time    3.2352
    STRESS:  cpu time    9.7560: real time    9.7566
    FORCOR:  cpu time    0.0285: real time    0.0285
    FORHAR:  cpu time    0.0119: real time    0.0119
    MIXING:  cpu time    0.0039: real time    0.0039
    OFIELD:  cpu time    0.0000: real time    0.0000

  FORCE on cell =-STRESS in cart. coord.  units (eV):
  Direction    XX          YY          ZZ          XY          YZ          ZX
  --------------------------------------------------------------------------------------
  Alpha Z   324.87462   324.87462   324.87462
  Ewald  110005.74799110037.24153************    34.74911    -9.83828    -6.16487
  Hartree112512.85312112525.86670************    14.75267    -4.23782    -2.53216
  E(xc)    -737.28598  -737.21689  -741.51666     0.11666    -0.00543    -0.05425
  Local  ************************227661.40476   -45.33330    13.47241     7.60518
  n-local    44.83169    45.55896    33.58946     0.45338    -1.03393    -0.21181
  augment   836.27467   835.33670   859.36048    -0.90337     0.29281     0.43782
  Kinetic  2386.25193  2382.69860  2449.26905    -3.48512     0.18527     0.57016
  Fock        0.00000     0.00000     0.00000     0.00000     0.00000     0.00000
  -------------------------------------------------------------------------------------
  Total     -10.42098   -10.25375    -1.31583     0.35004    -1.16498    -0.34992
  in kB     -20.25931   -19.93421    -2.55808     0.68050    -2.26482    -0.68028
  external pressure =      -14.25 kB  Pullay stress =        0.00 kB


 VOLUME and BASIS-vectors are now :
 -----------------------------------------------------------------------------
  energy-cutoff  :      350.00
  volume of cell :      824.13
      direct lattice vectors                 reciprocal lattice vectors
     5.557859300  0.000000000  0.000000000     0.179925390 -0.103879972  0.000000000
     2.778929650  4.813247345  0.000000000     0.000000000  0.207759944  0.000000000
     0.000000000  0.000000000 30.806959674     0.000000000  0.000000000  0.032460198

  length of vectors
     5.557859300  5.557859300 30.806959674     0.207759944  0.207759944  0.032460198


 FORCES acting on ions
    electron-ion (+dipol)            ewald-force                    non-local-force                 convergence-correction
 -----------------------------------------------------------------------------------------------
   0.958E+00 0.173E+01 -.781E+03   -.100E+01 -.170E+01 0.781E+03   0.374E-01 -.263E-01 0.381E+00   0.796E-04 0.322E-03 -.215E-02
   0.325E+01 0.331E+01 -.134E+04   -.354E+01 -.374E+01 0.134E+04   0.220E+00 0.355E+00 -.189E+01   -.123E-04 -.857E-05 0.200E-03
   -.983E+01 -.607E+01 -.340E+03   0.101E+02 0.582E+01 0.342E+03   -.136E+00 0.333E+00 -.183E+01   -.406E-04 -.357E-04 0.607E-04
   0.479E+01 -.447E+02 -.345E+03   -.526E+01 0.497E+02 0.347E+03   0.409E+00 -.507E+01 -.209E+01   0.650E-05 -.142E-03 -.107E-04
   0.398E+02 0.261E+02 -.341E+03   -.444E+02 -.292E+02 0.342E+03   0.454E+01 0.301E+01 -.131E+01   0.133E-03 0.861E-04 0.146E-04
   -.412E+02 0.223E+02 -.342E+03   0.458E+02 -.248E+02 0.344E+03   -.464E+01 0.242E+01 -.174E+01   -.136E-03 0.629E-04 -.274E-06
   -.111E+01 0.187E+01 0.266E+04   0.109E+01 -.185E+01 -.266E+04   0.173E-01 0.292E-01 -.151E+00   0.604E-04 0.136E-04 -.313E-02
   -.577E+01 0.118E+00 -.257E+04   0.579E+01 0.266E+00 0.256E+04   0.446E-01 -.343E+00 0.131E+01   0.504E-03 0.776E-04 -.701E-02
   -.117E+00 -.567E+01 -.257E+04   -.127E+00 0.547E+01 0.257E+04   0.256E+00 0.247E+00 -.138E+01   -.446E-03 0.907E-04 -.672E-02
   0.993E+01 -.200E+01 -.257E+04   -.906E+01 0.109E+01 0.257E+04   -.859E+00 0.859E+00 0.148E+01   0.651E-04 -.387E-03 -.704E-02
   -.174E+01 0.395E+01 -.265E+04   0.103E+01 -.456E+01 0.265E+04   0.739E+00 0.638E+00 -.538E+01   -.343E-05 0.116E-03 -.445E-02
   0.913E+00 -.916E+00 0.295E+04   -.889E+00 0.843E+00 -.294E+04   -.381E-02 0.121E+00 -.659E+00   -.541E-04 -.284E-03 -.320E-02
   -.956E+00 0.605E+01 -.745E+03   0.974E+00 -.639E+01 0.745E+03   -.317E-01 0.381E+00 0.342E+00   -.896E-04 -.247E-03 -.177E-02
   -.443E-01 -.588E+01 0.115E+04   0.671E-01 0.610E+01 -.115E+04   -.276E-01 -.440E-01 0.405E-01   0.125E-03 0.488E-03 0.285E-02
   -.886E-01 -.705E+01 0.114E+04   0.403E-01 0.734E+01 -.114E+04   0.478E-01 -.749E-01 -.611E+00   -.137E-03 0.451E-03 0.308E-02
   -.959E+00 0.710E+01 0.116E+04   0.991E+00 -.729E+01 -.116E+04   -.343E-01 0.394E-01 -.176E+00   -.387E-04 -.542E-03 0.259E-02
   0.139E+01 0.629E+01 0.115E+04   -.146E+01 -.649E+01 -.115E+04   0.426E-01 0.372E-01 -.522E+00   0.177E-04 -.382E-03 0.257E-02
   -.304E+01 0.224E-01 0.296E+04   0.285E+01 0.207E-01 -.295E+04   0.198E+00 -.756E-01 -.698E+00   -.254E-03 0.907E-04 -.329E-02
   0.245E+01 -.119E+01 0.295E+04   -.233E+01 0.114E+01 -.295E+04   -.115E+00 0.929E-03 -.686E+00   0.271E-03 0.153E-03 -.339E-02
   0.415E+01 -.422E+01 -.748E+03   -.452E+01 0.446E+01 0.748E+03   0.377E+00 -.242E+00 0.323E-01   -.493E-03 -.597E-04 -.213E-02
   -.340E+01 -.376E+01 -.749E+03   0.390E+01 0.377E+01 0.749E+03   -.543E+00 0.857E-02 -.276E+00   0.464E-03 0.639E-04 -.245E-02
 -----------------------------------------------------------------------------------------------
   -.524E+00 -.258E+01 0.159E+02   -.564E-13 -.284E-13 0.125E-11   0.537E+00 0.260E+01 -.158E+02   0.214E-04 -.727E-04 -.354E-01
 
 
 POSITION                                       TOTAL-FORCE (eV/Angst)
 -----------------------------------------------------------------------------------
      2.81742      1.61984     16.76553        -0.005864      0.004638      0.134348
      8.26755      4.72661     21.52405        -0.075355     -0.075009      0.008913
      0.98015      1.25376     20.22389         0.150919      0.076993     -0.120782
      5.41129      0.93104     21.93761        -0.054350     -0.060276     -0.047281
      7.38210      4.13914     21.78845        -0.046952     -0.093174      0.064672
      3.63552      4.24627     21.87303        -0.044890     -0.049749     -0.002626
      2.79414      0.02460     12.14689         0.000610      0.054222      1.222787
      4.20118      2.41388     19.05740         0.065752      0.040783      0.273731
      1.43792      2.43661     19.11165         0.010918      0.049421      0.158749
      5.60678      4.80392     19.06279         0.012170     -0.056736      0.241249
      2.78668      4.79350     19.43262         0.031929      0.025274     -0.041796
      0.02067      0.01967     12.15528         0.019297      0.047285     -0.304075
      5.60042      1.61010     16.79797        -0.014404      0.044091     -0.164072
      5.58908      3.23514     14.46769        -0.005314      0.180857     -0.335016
      2.80674      3.23600     14.49628        -0.001229      0.211224     -0.141013
      4.20066      0.83182     14.46912        -0.003483     -0.155535     -0.438768
      1.41966      0.82558     14.49051        -0.025528     -0.171932     -0.463219
      4.17904      2.43051     12.13794         0.009355     -0.033073     -0.083249
      1.41108      2.42570     12.14687         0.006834     -0.050473     -0.061246
      4.19384      4.03874     16.80634         0.008715     -0.006741      0.077728
      7.00828      4.03747     16.81448        -0.039129      0.017910      0.020966
 -----------------------------------------------------------------------------------
    total drift:                                0.013010      0.014547      0.007859


--------------------------------------------------------------------------------------------------------



  FREE ENERGIE OF THE ION-ELECTRON SYSTEM (eV)
  ---------------------------------------------------
  free  energy   TOTEN  =      -115.35168568 eV

  energy  without entropy=     -115.33424975  energy(sigma->0) =     -115.34587370
 


--------------------------------------------------------------------------------------------------------


    POTLOK:  cpu time    0.0260: real time    0.0260


--------------------------------------------------------------------------------------------------------


     LOOP+:  cpu time  589.8574: real time  590.0441
    4ORBIT:  cpu time    0.0000: real time    0.0000

 total amount of memory used by VASP MPI-rank0   164315. kBytes
=======================================================================

   base      :      30000. kBytes
   nonlr-proj:       2362. kBytes
   fftplans  :       2967. kBytes
   grid      :       6321. kBytes
   one-center:         93. kBytes
   wavefun   :     122572. kBytes
 
  
  
 General timing and accounting informations for this job:
 ========================================================
  
                  Total CPU time used (sec):      597.356
                            User time (sec):      593.606
                          System time (sec):        3.750
                         Elapsed time (sec):      597.746
  
                   Maximum memory used (kb):      205152.
                   Average memory used (kb):           0.
  
                          Minor page faults:        83997
                          Major page faults:            0
                 Voluntary context switches:          924
