       N       E                     dE             d eps       ncg     rms          rms(c)
DAV:   1     0.102888308995E+04    0.10289E+04   -0.58321E+04 19288   0.103E+03
DAV:   2    -0.296005415552E+02   -0.10585E+04   -0.98365E+03 23984   0.259E+02
DAV:   3    -0.121009808774E+03   -0.91409E+02   -0.84547E+02 23056   0.757E+01
DAV:   4    -0.125455887836E+03   -0.44461E+01   -0.42343E+01 25568   0.170E+01
DAV:   5    -0.125595122703E+03   -0.13923E+00   -0.13801E+00 26500   0.295E+00    0.431E+01
DAV:   6    -0.118388495088E+03    0.72066E+01   -0.38588E+01 22832   0.258E+01    0.330E+01
DAV:   7    -0.157240563656E+03   -0.38852E+02   -0.16510E+02 29580   0.711E+01    0.553E+01
DAV:   8    -0.134374629540E+03    0.22866E+02   -0.70625E+01 30008   0.481E+01    0.383E+01
DAV:   9    -0.127264675142E+03    0.71100E+01   -0.82103E+01 25376   0.420E+01    0.287E+01
DAV:  10    -0.126687039537E+03    0.57764E+00   -0.43115E+01 30604   0.513E+01    0.280E+01
DAV:  11    -0.115997548555E+03    0.10689E+02   -0.23126E+01 27244   0.193E+01    0.993E+00
DAV:  12    -0.116454991166E+03   -0.45744E+00   -0.83788E+00 26840   0.147E+01    0.130E+01
DAV:  13    -0.115239388016E+03    0.12156E+01   -0.69096E+00 27212   0.913E+00    0.560E+00
DAV:  14    -0.115162227266E+03    0.77161E-01   -0.63330E-01 22504   0.371E+00    0.450E+00
DAV:  15    -0.115134152794E+03    0.28074E-01   -0.78318E-02 25280   0.126E+00    0.393E+00
DAV:  16    -0.115109685361E+03    0.24467E-01   -0.13500E-01 27920   0.151E+00    0.310E+00
DAV:  17    -0.115096279598E+03    0.13406E-01   -0.47094E-01 26204   0.235E+00    0.218E+00
DAV:  18    -0.115083518933E+03    0.12761E-01   -0.27721E-02 21212   0.755E-01    0.187E+00
DAV:  19    -0.115073065983E+03    0.10453E-01   -0.71985E-03 23168   0.357E-01    0.147E+00
DAV:  20    -0.115061798634E+03    0.11267E-01   -0.13275E-02 26592   0.502E-01    0.105E+00
DAV:  21    -0.115055395071E+03    0.64036E-02   -0.91808E-03 27360   0.381E-01    0.736E-01
DAV:  22    -0.115054752205E+03    0.64287E-03   -0.54801E-04 22188   0.937E-02    0.687E-01
DAV:  23    -0.115054218331E+03    0.53387E-03   -0.48966E-04 25904   0.979E-02    0.645E-01
DAV:  24    -0.115051180124E+03    0.30382E-02   -0.42525E-03 27600   0.242E-01    0.317E-01
DAV:  25    -0.115050509735E+03    0.67039E-03   -0.12907E-03 27224   0.137E-01    0.157E-01
DAV:  26    -0.115050423064E+03    0.86671E-04   -0.22476E-04 24112   0.634E-02    0.983E-02
DAV:  27    -0.115050446775E+03   -0.23711E-04   -0.18234E-04 23120   0.655E-02    0.449E-02
DAV:  28    -0.115050550961E+03   -0.10419E-03   -0.93790E-05 20016   0.402E-02    0.278E-02
DAV:  29    -0.115050648965E+03   -0.98005E-04   -0.17325E-05 12224   0.175E-02    0.212E-02
DAV:  30    -0.115050782325E+03   -0.13336E-03   -0.13384E-05 12392   0.146E-02    0.214E-02
DAV:  31    -0.115050853952E+03   -0.71627E-04   -0.65574E-06 12272   0.874E-03    0.242E-02
DAV:  32    -0.115050950877E+03   -0.96925E-04   -0.48175E-06 12332   0.762E-03    0.256E-02
DAV:  33    -0.115051053406E+03   -0.10253E-03   -0.68718E-06 12476   0.109E-02    0.158E-02
DAV:  34    -0.115051082555E+03   -0.29149E-04   -0.39387E-06 12256   0.673E-03    0.858E-03
DAV:  35    -0.115051123034E+03   -0.40479E-04   -0.22588E-06 12228   0.574E-03    0.465E-03
DAV:  36    -0.115051138380E+03   -0.15346E-04   -0.11360E-06 12112   0.368E-03    0.358E-03
DAV:  37    -0.115051145137E+03   -0.67578E-05   -0.50863E-07 10984   0.252E-03
   1 F= -.11504421E+03 E0= -.11503323E+03  d E =-.329425E-01
