 vasp.5.4.4.18Apr17-6-g9f103f2a35 (build Apr 28 2017 10:53:45) complex          
  
 executed on             LinuxIFC date 2019.07.18  18:25:24
 running on   16 total cores
 distrk:  each k-point on   16 cores,    1 groups
 distr:  one band on NCORES_PER_BAND=   4 cores,    4 groups


--------------------------------------------------------------------------------------------------------


 INCAR:
 POTCAR:    PAW_PBE Au 04Oct2007                  
 POTCAR:    PAW_PBE C 08Apr2002                   
 POTCAR:    PAW_PBE H 15Jun2001                   
 POTCAR:    PAW_PBE Ir 06Sep2000                  
 POTCAR:    PAW_PBE Pt 04Feb2005                  
 POTCAR:    PAW_PBE Au 04Oct2007                  
   VRHFIN =Au: s1d10                                                            
   LEXCH  = PE                                                                  
   EATOM  =   926.0867 eV,   68.0654 Ry                                         
                                                                                
   TITEL  = PAW_PBE Au 04Oct2007                                                
   LULTRA =        F    use ultrasoft PP ?                                      
   IUNSCR =        1    unscreen: 0-lin 1-nonlin 2-no                           
   RPACOR =    2.330    partial core radius                                     
   POMASS =  196.966; ZVAL   =   11.000    mass and valenz                      
   RCORE  =    2.500    outmost cutoff radius                                   
   RWIGS  =    2.840; RWIGS  =    1.503    wigner-seitz radius (au A)           
   ENMAX  =  229.943; ENMIN  =  172.457 eV                                      
   ICORE  =        3    local potential                                         
   LCOR   =        T    correct aug charges                                     
   LPAW   =        T    paw PP                                                  
   EAUG   =  356.670                                                            
   DEXC   =    0.000                                                            
   RMAX   =    2.562    core radius for proj-oper                               
   RAUG   =    1.300    factor for augmentation sphere                          
   RDEP   =    2.598    radius for radial grids                                 
   RDEPT  =    2.193    core radius for aug-charge                              
                                                                                
   Atomic configuration                                                         
   16 entries                                                                   
     n  l   j            E        occ.                                          
     1  0  0.50    -80748.5001   2.0000                                         
     2  0  0.50    -14244.7466   2.0000                                         
     2  1  1.50    -12310.9591   6.0000                                         
     3  0  0.50     -3362.1768   2.0000                                         
     3  1  1.50     -2801.5463   6.0000                                         
     3  2  2.50     -2203.8206  10.0000                                         
     4  0  0.50      -729.8168   2.0000                                         
     4  1  1.50      -546.0527   6.0000                                         
     4  2  2.50      -325.7302  10.0000                                         
     4  3  3.50       -81.1472  14.0000                                         
     5  0  0.50      -108.3201   2.0000                                         
     5  1  1.50       -59.7479   6.0000                                         
     5  2  2.50        -6.8783  10.0000                                         
     6  0  0.50        -5.7602   1.0000                                         
     6  1  1.50        -6.8029   0.0000                                         
     5  3  2.50        -1.3606   0.0000                                         
   Description                                                                  
     l       E           TYP  RCUT    TYP  RCUT                                 
     2     -6.8782861     23  2.500                                             
     2     -8.2388687     23  2.500                                             
     0     -5.7601759     23  2.500                                             
     0     -0.8493231     23  2.500                                             
     1     -2.7211652     23  2.500                                             
     1     27.2116520     23  2.500                                             
     3     -1.3605826     23  2.500                                             
  local pseudopotential read in
  partial core-charges read in
  partial kinetic energy density read in
  atomic valenz-charges read in
  non local Contribution for L=           2  read in
    real space projection operators read in
  non local Contribution for L=           2  read in
    real space projection operators read in
  non local Contribution for L=           0  read in
    real space projection operators read in
  non local Contribution for L=           0  read in
    real space projection operators read in
  non local Contribution for L=           1  read in
    real space projection operators read in
  non local Contribution for L=           1  read in
    real space projection operators read in
    PAW grid and wavefunctions read in
 
   number of l-projection  operators is LMAX  =           6
   number of lm-projection operators is LMMAX =          18
 
 POTCAR:    PAW_PBE C 08Apr2002                   
   VRHFIN =C: s2p2                                                              
   LEXCH  = PE                                                                  
   EATOM  =   147.1560 eV,   10.8157 Ry                                         
                                                                                
   TITEL  = PAW_PBE C 08Apr2002                                                 
   LULTRA =        F    use ultrasoft PP ?                                      
   IUNSCR =        1    unscreen: 0-lin 1-nonlin 2-no                           
   RPACOR =    1.200    partial core radius                                     
   POMASS =   12.011; ZVAL   =    4.000    mass and valenz                      
   RCORE  =    1.500    outmost cutoff radius                                   
   RWIGS  =    1.630; RWIGS  =    0.863    wigner-seitz radius (au A)           
   ENMAX  =  400.000; ENMIN  =  300.000 eV                                      
   ICORE  =        2    local potential                                         
   LCOR   =        T    correct aug charges                                     
   LPAW   =        T    paw PP                                                  
   EAUG   =  644.873                                                            
   DEXC   =    0.000                                                            
   RMAX   =    1.529    core radius for proj-oper                               
   RAUG   =    1.300    factor for augmentation sphere                          
   RDEP   =    1.501    radius for radial grids                                 
   RDEPT  =    1.300    core radius for aug-charge                              
                                                                                
   Atomic configuration                                                         
    4 entries                                                                   
     n  l   j            E        occ.                                          
     1  0  0.50      -273.3789   2.0000                                         
     2  0  0.50       -13.7508   2.0000                                         
     2  1  0.50        -5.2854   2.0000                                         
     3  2  1.50        -5.4423   0.0000                                         
   Description                                                                  
     l       E           TYP  RCUT    TYP  RCUT                                 
     0    -13.7508458     23  1.200                                             
     0     -8.2022199     23  1.200                                             
     1     -5.2854383     23  1.500                                             
     1     34.0145650     23  1.500                                             
     2     -5.4423304      7  1.500                                             
  local pseudopotential read in
  partial core-charges read in
  partial kinetic energy density read in
  atomic valenz-charges read in
  non local Contribution for L=           0  read in
    real space projection operators read in
  non local Contribution for L=           0  read in
    real space projection operators read in
  non local Contribution for L=           1  read in
    real space projection operators read in
  non local Contribution for L=           1  read in
    real space projection operators read in
    PAW grid and wavefunctions read in
 
   number of l-projection  operators is LMAX  =           4
   number of lm-projection operators is LMMAX =           8
 
 POTCAR:    PAW_PBE H 15Jun2001                   
   VRHFIN =H: ultrasoft test                                                    
   LEXCH  = PE                                                                  
   EATOM  =    12.4884 eV,    0.9179 Ry                                         
                                                                                
   TITEL  = PAW_PBE H 15Jun2001                                                 
   LULTRA =        F    use ultrasoft PP ?                                      
   IUNSCR =        0    unscreen: 0-lin 1-nonlin 2-no                           
   RPACOR =    0.000    partial core radius                                     
   POMASS =    1.000; ZVAL   =    1.000    mass and valenz                      
   RCORE  =    1.100    outmost cutoff radius                                   
   RWIGS  =    0.700; RWIGS  =    0.370    wigner-seitz radius (au A)           
   ENMAX  =  250.000; ENMIN  =  200.000 eV                                      
   RCLOC  =    0.701    cutoff for local pot                                    
   LCOR   =        T    correct aug charges                                     
   LPAW   =        T    paw PP                                                  
   EAUG   =  400.000                                                            
   RMAX   =    1.123    core radius for proj-oper                               
   RAUG   =    1.200    factor for augmentation sphere                          
   RDEP   =    1.112    radius for radial grids                                 
   RDEPT  =    0.926    core radius for aug-charge                              
                                                                                
   Atomic configuration                                                         
    2 entries                                                                   
     n  l   j            E        occ.                                          
     1  0  0.50        -6.4927   1.0000                                         
     2  1  0.50        -3.4015   0.0000                                         
   Description                                                                  
     l       E           TYP  RCUT    TYP  RCUT                                 
     0     -6.4927494     23  1.100                                             
     0      6.8029130     23  1.100                                             
     1     -4.0817478     23  1.100                                             
  local pseudopotential read in
  atomic valenz-charges read in
  non local Contribution for L=           0  read in
    real space projection operators read in
  non local Contribution for L=           0  read in
    real space projection operators read in
  non local Contribution for L=           1  read in
    real space projection operators read in
    PAW grid and wavefunctions read in
 
   number of l-projection  operators is LMAX  =           3
   number of lm-projection operators is LMMAX =           5
 
 POTCAR:    PAW_PBE Ir 06Sep2000                  
   VRHFIN =Ir: s1d8                                                             
   LEXCH  = PE                                                                  
   EATOM  =   560.1833 eV,   41.1723 Ry                                         
                                                                                
   TITEL  = PAW_PBE Ir 06Sep2000                                                
   LULTRA =        F    use ultrasoft PP ?                                      
   IUNSCR =        1    unscreen: 0-lin 1-nonlin 2-no                           
   RPACOR =    2.250    partial core radius                                     
   POMASS =  192.220; ZVAL   =    9.000    mass and valenz                      
   RCORE  =    2.600    outmost cutoff radius                                   
   RWIGS  =    2.690; RWIGS  =    1.423    wigner-seitz radius (au A)           
   ENMAX  =  210.864; ENMIN  =  158.148 eV                                      
   RCLOC  =    1.857    cutoff for local pot                                    
   LCOR   =        T    correct aug charges                                     
   LPAW   =        T    paw PP                                                  
   EAUG   =  318.962                                                            
   DEXC   =    0.000                                                            
   RMAX   =    2.667    core radius for proj-oper                               
   RAUG   =    1.300    factor for augmentation sphere                          
   RDEP   =    2.748    radius for radial grids                                 
   RDEPT  =    2.300    core radius for aug-charge                              
                                                                                
   Atomic configuration                                                         
   16 entries                                                                   
     n  l   j            E        occ.                                          
     1  0  0.50    -76100.0449   2.0000                                         
     2  0  0.50    -13308.1683   2.0000                                         
     2  1  1.50    -11558.0021   6.0000                                         
     3  0  0.50     -3110.7274   2.0000                                         
     3  1  1.50     -2599.2109   6.0000                                         
     3  2  2.50     -2037.1515  10.0000                                         
     4  0  0.50      -661.6001   2.0000                                         
     4  1  1.50      -493.8981   6.0000                                         
     4  2  2.50      -288.1909  10.0000                                         
     4  3  3.50       -59.5718  14.0000                                         
     5  0  0.50       -95.3879   2.0000                                         
     5  1  1.50       -52.2747   6.0000                                         
     5  2  2.50        -5.4180   8.0000                                         
     6  0  0.50        -5.5479   1.0000                                         
     6  1  1.50        -6.8029   0.0000                                         
     5  3  2.50        -1.3606   0.0000                                         
   Description                                                                  
     l       E           TYP  RCUT    TYP  RCUT                                 
     2     -5.4179967     23  2.600                                             
     2     -6.7785793     23  2.600                                             
     0     -5.5478636     23  2.600                                             
     0      2.2542272     23  2.600                                             
     1     -2.7211652     23  2.600                                             
     1     20.4087390     23  2.600                                             
  local pseudopotential read in
  partial core-charges read in
  partial kinetic energy density read in
  atomic valenz-charges read in
  non local Contribution for L=           2  read in
    real space projection operators read in
  non local Contribution for L=           2  read in
    real space projection operators read in
  non local Contribution for L=           0  read in
    real space projection operators read in
  non local Contribution for L=           0  read in
    real space projection operators read in
  non local Contribution for L=           1  read in
    real space projection operators read in
  non local Contribution for L=           1  read in
    real space projection operators read in
    PAW grid and wavefunctions read in
 
   number of l-projection  operators is LMAX  =           6
   number of lm-projection operators is LMMAX =          18
 
 POTCAR:    PAW_PBE Pt 04Feb2005                  
   VRHFIN =Pt: s1d9                                                             
   LEXCH  = PE                                                                  
   EATOM  =   729.1176 eV,   53.5886 Ry                                         
                                                                                
   TITEL  = PAW_PBE Pt 04Feb2005                                                
   LULTRA =        F    use ultrasoft PP ?                                      
   IUNSCR =        1    unscreen: 0-lin 1-nonlin 2-no                           
   RPACOR =    2.330    partial core radius                                     
   POMASS =  195.080; ZVAL   =   10.000    mass and valenz                      
   RCORE  =    2.600    outmost cutoff radius                                   
   RWIGS  =    2.750; RWIGS  =    1.455    wigner-seitz radius (au A)           
   ENMAX  =  230.283; ENMIN  =  172.712 eV                                      
   ICORE  =        3    local potential                                         
   LCOR   =        T    correct aug charges                                     
   LPAW   =        T    paw PP                                                  
   EAUG   =  358.966                                                            
   DEXC   =    0.000                                                            
   RMAX   =    2.658    core radius for proj-oper                               
   RAUG   =    1.300    factor for augmentation sphere                          
   RDEP   =    2.761    radius for radial grids                                 
   RDEPT  =    2.203    core radius for aug-charge                              
                                                                                
   Atomic configuration                                                         
   16 entries                                                                   
     n  l   j            E        occ.                                          
     1  0  0.50    -78401.1885   2.0000                                         
     2  0  0.50    -13770.7750   2.0000                                         
     2  1  1.50    -11931.0468   6.0000                                         
     3  0  0.50     -3234.7234   2.0000                                         
     3  1  1.50     -2699.2216   6.0000                                         
     3  2  2.50     -2119.5714  10.0000                                         
     4  0  0.50      -695.1528   2.0000                                         
     4  1  1.50      -519.6034   6.0000                                         
     4  2  2.50      -306.6786  10.0000                                         
     4  3  3.50       -70.1041  14.0000                                         
     5  0  0.50      -101.7747   2.0000                                         
     5  1  1.50       -55.9873   6.0000                                         
     5  2  2.50        -6.1423   9.0000                                         
     6  0  0.50        -5.6573   1.0000                                         
     6  1  1.50        -6.8029   0.0000                                         
     5  3  2.50        -1.3606   0.0000                                         
   Description                                                                  
     l       E           TYP  RCUT    TYP  RCUT                                 
     2     -6.1423404     23  2.500                                             
     2     -7.5029230     23  2.500                                             
     0     -5.6573207     23  2.500                                             
     0      0.7416693     23  2.500                                             
     1     -2.7211652     23  2.600                                             
     1     20.4087390     23  2.600                                             
     3     -1.3605826     23  2.500                                             
  local pseudopotential read in
  partial core-charges read in
  partial kinetic energy density read in
  atomic valenz-charges read in
  non local Contribution for L=           2  read in
    real space projection operators read in
  non local Contribution for L=           2  read in
    real space projection operators read in
  non local Contribution for L=           0  read in
    real space projection operators read in
  non local Contribution for L=           0  read in
    real space projection operators read in
  non local Contribution for L=           1  read in
    real space projection operators read in
  non local Contribution for L=           1  read in
    real space projection operators read in
    PAW grid and wavefunctions read in
 
   number of l-projection  operators is LMAX  =           6
   number of lm-projection operators is LMMAX =          18
 
 Optimization of the real space projectors (new method)

 maximal supplied QI-value         = 15.12
 optimisation between [QCUT,QGAM] = [  9.52, 19.05] = [ 25.40,101.61] Ry 
 Optimized for a Real-space Cutoff    1.57 Angstroem

   l    n(q)    QCUT    max X(q) W(low)/X(q) W(high)/X(q)  e(spline) 
   2      8     9.524    60.898    0.38E-03    0.43E-04    0.84E-07
   2      8     9.524    58.894    0.38E-03    0.47E-04    0.88E-07
   0      9     9.524   109.617    0.60E-04    0.64E-04    0.80E-07
   0      9     9.524    75.026    0.59E-04    0.62E-04    0.78E-07
   1      8     9.524    16.344    0.99E-04    0.18E-03    0.87E-07
   1      8     9.524    10.160    0.78E-04    0.15E-03    0.74E-07
 Optimization of the real space projectors (new method)

 maximal supplied QI-value         = 25.13
 optimisation between [QCUT,QGAM] = [  9.55, 19.10] = [ 25.54,102.17] Ry 
 Optimized for a Real-space Cutoff    1.39 Angstroem

   l    n(q)    QCUT    max X(q) W(low)/X(q) W(high)/X(q)  e(spline) 
   0      8     9.551   115.676    0.39E-03    0.54E-03    0.29E-06
   0      8     9.551    87.132    0.39E-03    0.54E-03    0.28E-06
   1      7     9.551     4.429    0.35E-03    0.51E-04    0.29E-06
   1      7     9.551     2.733    0.22E-03    0.42E-04    0.31E-06
 Optimization of the real space projectors (new method)

 maximal supplied QI-value         = 34.20
 optimisation between [QCUT,QGAM] = [  9.58, 19.15] = [ 25.68,102.74] Ry 
 Optimized for a Real-space Cutoff    1.31 Angstroem

   l    n(q)    QCUT    max X(q) W(low)/X(q) W(high)/X(q)  e(spline) 
   0      7     9.577    19.460    0.33E-03    0.12E-03    0.35E-06
   0      7     9.577    12.209    0.33E-03    0.11E-03    0.33E-06
   1      7     9.577     4.655    0.39E-03    0.14E-02    0.33E-06
 Optimization of the real space projectors (new method)

 maximal supplied QI-value         = 14.36
 optimisation between [QCUT,QGAM] = [  9.48, 19.10] = [ 25.16,102.17] Ry 
 Optimized for a Real-space Cutoff    1.57 Angstroem

   l    n(q)    QCUT    max X(q) W(low)/X(q) W(high)/X(q)  e(spline) 
   2      8     9.479   134.116    0.18E-03    0.75E-03    0.26E-06
   2      8     9.479   130.192    0.18E-03    0.75E-03    0.27E-06
   0      9     9.479    60.310    0.39E-03    0.24E-03    0.63E-07
   0      9     9.479    39.218    0.36E-03    0.22E-03    0.59E-07
   1      8     9.479    18.439    0.20E-03    0.15E-03    0.16E-06
   1      8     9.479    12.760    0.16E-03    0.11E-03    0.13E-06
 Optimization of the real space projectors (new method)

 maximal supplied QI-value         = 14.36
 optimisation between [QCUT,QGAM] = [  9.48, 19.10] = [ 25.16,102.17] Ry 
 Optimized for a Real-space Cutoff    1.57 Angstroem

   l    n(q)    QCUT    max X(q) W(low)/X(q) W(high)/X(q)  e(spline) 
   2      8     9.479    66.195    0.35E-03    0.53E-04    0.87E-07
   2      8     9.479    64.643    0.35E-03    0.57E-04    0.91E-07
   0      9     9.479    95.520    0.50E-04    0.62E-04    0.81E-07
   0      9     9.479    63.403    0.49E-04    0.60E-04    0.78E-07
   1      8     9.479    19.961    0.10E-03    0.87E-04    0.11E-06
   1      8     9.479    13.289    0.88E-04    0.71E-04    0.97E-07
  PAW_PBE Au 04Oct2007                  :
 energy of atom  1       EATOM= -926.0867
 kinetic energy error for atom=    0.0152 (will be added to EATOM!!)
  PAW_PBE C 08Apr2002                   :
 energy of atom  2       EATOM= -147.1560
 kinetic energy error for atom=    0.0854 (will be added to EATOM!!)
  PAW_PBE H 15Jun2001                   :
 energy of atom  3       EATOM=  -12.4884
 kinetic energy error for atom=    0.0203 (will be added to EATOM!!)
  PAW_PBE Ir 06Sep2000                  :
 energy of atom  4       EATOM= -560.1833
 kinetic energy error for atom=    0.0056 (will be added to EATOM!!)
  PAW_PBE Pt 04Feb2005                  :
 energy of atom  5       EATOM= -729.1176
 kinetic energy error for atom=    0.0144 (will be added to EATOM!!)
 
 
 POSCAR: Au  C  H Ir Pt                          
  positions in cartesian coordinates
  No initial velocities read in
 exchange correlation table for  LEXCH =        8
   RHO(1)=    0.500       N(1)  =     2000
   RHO(2)=  100.500       N(2)  =     4000
 


--------------------------------------------------------------------------------------------------------


 ion  position               nearest neighbor table
   1  0.016  0.482  0.621-   3 1.55   8 2.78   9 2.78   9 2.78  10 2.78   8 2.79  10 2.79  20 2.86
                            13 2.87  21 2.88
   2  0.003  0.979  0.693-   4 1.10   5 1.10   6 1.10  10 2.07
   3  0.035  0.465  0.671-   1 1.55
   4  0.922  0.192  0.705-   2 1.10
   5  0.866  0.900  0.704-   2 1.10
   6  0.216  0.843  0.705-   2 1.10
   7  0.497  0.001  0.392-  12 2.76  19 2.77  18 2.78  18 2.78  19 2.79  12 2.79  16 2.82  14 2.84
                            17 2.84
   8  0.516  0.482  0.617-  13 2.75   1 2.78   9 2.78   9 2.78  10 2.78   1 2.79  11 2.79  20 2.80
                            10 2.80
   9  0.516  0.982  0.617-  21 2.75  11 2.77   8 2.78   1 2.78  10 2.78   8 2.78   1 2.78  10 2.80
                            20 2.81
  10  0.014  0.983  0.626-   2 2.07   9 2.78   1 2.78   8 2.78   1 2.79   8 2.80   9 2.80  11 2.97
                            21 2.99  13 3.02
  11  0.337  0.825  0.544-  13 2.75  21 2.75   9 2.77  20 2.78  20 2.78   8 2.79  21 2.80  13 2.80
                            15 2.81  17 2.83  14 2.84  10 2.97
  12  0.000  1.000  0.393-   7 2.76  18 2.76  19 2.78  19 2.78  18 2.79   7 2.79  16 2.81  17 2.84
                            15 2.86
  13  0.843  0.321  0.544-  11 2.75   8 2.75  21 2.77  20 2.77  17 2.78  20 2.79  21 2.79  11 2.80
                            16 2.84  14 2.86   1 2.87  10 3.02
  14  0.669  0.663  0.468-  15 2.78  16 2.78  16 2.78  17 2.78  17 2.78  15 2.78  19 2.81  18 2.82
                             7 2.84  11 2.84  21 2.84  13 2.86
  15  0.168  0.663  0.469-  17 2.78  16 2.78  14 2.78  14 2.78  17 2.78  16 2.78  21 2.78  20 2.80
                            11 2.81  18 2.84  19 2.85  12 2.86
  16  0.669  0.163  0.468-  17 2.78  15 2.78  14 2.78  14 2.78  15 2.78  17 2.78  12 2.81  20 2.81
                             7 2.82  18 2.83  13 2.84  21 2.86
  17  0.168  0.163  0.469-  16 2.78  15 2.78  14 2.78  14 2.78  15 2.78  16 2.78  13 2.78  20 2.78
                            11 2.83   7 2.84  12 2.84  19 2.86
  18  0.497  0.502  0.392-  12 2.76  19 2.77   7 2.78   7 2.78  19 2.79  12 2.79  14 2.82  16 2.83
                            15 2.84
  19  0.000  0.500  0.393-  18 2.77   7 2.77  12 2.78  12 2.78   7 2.79  18 2.79  14 2.81  15 2.85
                            17 2.86
  20  0.341  0.323  0.543-  21 2.77  13 2.77  11 2.78  11 2.78  17 2.78  13 2.79  21 2.79   8 2.80
                            15 2.80  16 2.81   9 2.81   1 2.86
  21  0.843  0.823  0.544-   9 2.75  11 2.75  13 2.77  20 2.77  15 2.78  20 2.79  13 2.79  11 2.80
                            14 2.84  16 2.86   1 2.88  10 2.99
 
  LATTYP: Found a hexagonal cell.
 ALAT       =     5.5578593001
 C/A-ratio  =     5.5429542221
  
  Lattice vectors:
  
 A1 = (   2.7789296501,  -4.8132473446,   0.0000000000)
 A2 = (  -5.5578593001,   0.0000000000,   0.0000000000)
 A3 = (   0.0000000000,   0.0000000000, -30.8069596737)


Analysis of symmetry for initial positions (statically):
=====================================================================
 Subroutine PRICEL returns:
 Original cell was already a primitive cell.
 

 Routine SETGRP: Setting up the symmetry group for a 
 hexagonal supercell.


 Subroutine GETGRP returns: Found  1 space group operations
 (whereof  1 operations were pure point group operations)
 out of a pool of 24 trial point group operations.


The static configuration has the point symmetry C_1 .


Analysis of symmetry for dynamics (positions and initial velocities):
=====================================================================
 Subroutine PRICEL returns:
 Original cell was already a primitive cell.
 

 Routine SETGRP: Setting up the symmetry group for a 
 hexagonal supercell.


 Subroutine GETGRP returns: Found  1 space group operations
 (whereof  1 operations were pure point group operations)
 out of a pool of 24 trial point group operations.


The dynamic configuration has the point symmetry C_1 .


 Subroutine INISYM returns: Found  1 space group operations
 (whereof  1 operations are pure point group operations),
 and found     1 'primitive' translations

 
 
 KPOINTS: 0.3.Ir1.Au14                            

Automatic generation of k-mesh.
Space group operators:
 irot       det(A)        alpha          n_x          n_y          n_z        tau_x        tau_y        tau_z
    1     1.000000     0.000001     1.000000     0.000000     0.000000     0.000000     0.000000     0.000000
 
 Subroutine IBZKPT returns following result:
 ===========================================
 
 Found     96 irreducible k-points:
 
 Following reciprocal coordinates:
            Coordinates               Weight
  0.062500  0.062500  0.000000     16.000000
  0.000000  0.062500  0.000000     16.000000
 -0.062500  0.000000  0.000000     16.000000
  0.187500  0.062500  0.000000     16.000000
  0.125000  0.187500  0.000000     16.000000
 -0.062500  0.125000  0.000000     16.000000
  0.125000 -0.062500  0.000000     16.000000
 -0.062500 -0.187500  0.000000     16.000000
 -0.187500 -0.125000  0.000000     16.000000
  0.312500  0.062500  0.000000     16.000000
  0.250000  0.312500  0.000000     16.000000
 -0.062500  0.250000  0.000000     16.000000
  0.250000 -0.062500  0.000000     16.000000
 -0.062500 -0.312500  0.000000     16.000000
 -0.312500 -0.250000  0.000000     16.000000
  0.437500  0.062500  0.000000     16.000000
  0.375000  0.437500  0.000000     16.000000
 -0.062500  0.375000  0.000000     16.000000
  0.375000 -0.062500  0.000000     16.000000
 -0.062500 -0.437500  0.000000     16.000000
 -0.437500 -0.375000  0.000000     16.000000
 -0.437500  0.062500  0.000000     16.000000
  0.500000 -0.437500  0.000000     16.000000
 -0.062500  0.500000  0.000000     16.000000
  0.500000 -0.062500  0.000000     16.000000
 -0.062500  0.437500  0.000000     16.000000
  0.437500  0.500000  0.000000     16.000000
 -0.312500  0.062500  0.000000     16.000000
 -0.375000 -0.312500  0.000000     16.000000
 -0.062500 -0.375000  0.000000     16.000000
 -0.375000 -0.062500  0.000000     16.000000
 -0.062500  0.312500  0.000000     16.000000
  0.312500  0.375000  0.000000     16.000000
 -0.187500  0.062500  0.000000     16.000000
 -0.250000 -0.187500  0.000000     16.000000
 -0.062500 -0.250000  0.000000     16.000000
 -0.250000 -0.062500  0.000000     16.000000
 -0.062500  0.187500  0.000000     16.000000
  0.187500  0.250000  0.000000     16.000000
 -0.062500  0.062500  0.000000     16.000000
 -0.125000 -0.062500  0.000000     16.000000
 -0.062500 -0.125000  0.000000     16.000000
  0.187500  0.187500  0.000000     16.000000
  0.000000  0.187500  0.000000     16.000000
 -0.187500  0.000000  0.000000     16.000000
  0.312500  0.187500  0.000000     16.000000
  0.125000  0.312500  0.000000     16.000000
 -0.187500  0.125000  0.000000     16.000000
  0.125000 -0.187500  0.000000     16.000000
 -0.187500 -0.312500  0.000000     16.000000
 -0.312500 -0.125000  0.000000     16.000000
  0.437500  0.187500  0.000000     16.000000
  0.250000  0.437500  0.000000     16.000000
 -0.187500  0.250000  0.000000     16.000000
  0.250000 -0.187500  0.000000     16.000000
 -0.187500 -0.437500  0.000000     16.000000
 -0.437500 -0.250000  0.000000     16.000000
 -0.437500  0.187500  0.000000     16.000000
  0.375000 -0.437500  0.000000     16.000000
 -0.187500  0.375000  0.000000     16.000000
  0.375000 -0.187500  0.000000     16.000000
 -0.187500  0.437500  0.000000     16.000000
  0.437500 -0.375000  0.000000     16.000000
 -0.312500  0.187500  0.000000     16.000000
  0.500000 -0.312500  0.000000     16.000000
 -0.187500  0.500000  0.000000     16.000000
  0.500000 -0.187500  0.000000     16.000000
 -0.187500  0.312500  0.000000     16.000000
  0.312500  0.500000  0.000000     16.000000
 -0.187500  0.187500  0.000000     16.000000
 -0.375000 -0.187500  0.000000     16.000000
 -0.187500 -0.375000  0.000000     16.000000
  0.312500  0.312500  0.000000     16.000000
  0.000000  0.312500  0.000000     16.000000
 -0.312500  0.000000  0.000000     16.000000
  0.437500  0.312500  0.000000     16.000000
  0.125000  0.437500  0.000000     16.000000
 -0.312500  0.125000  0.000000     16.000000
  0.125000 -0.312500  0.000000     16.000000
 -0.312500 -0.437500  0.000000     16.000000
 -0.437500 -0.125000  0.000000     16.000000
 -0.437500  0.312500  0.000000     16.000000
  0.250000 -0.437500  0.000000     16.000000
 -0.312500  0.250000  0.000000     16.000000
  0.250000 -0.312500  0.000000     16.000000
 -0.312500  0.437500  0.000000     16.000000
  0.437500 -0.250000  0.000000     16.000000
 -0.312500  0.312500  0.000000     16.000000
  0.375000 -0.312500  0.000000     16.000000
 -0.312500  0.375000  0.000000     16.000000
  0.437500  0.437500  0.000000     16.000000
  0.000000  0.437500  0.000000     16.000000
 -0.437500 -0.000000  0.000000     16.000000
 -0.437500  0.437500  0.000000     16.000000
  0.125000 -0.437500  0.000000     16.000000
 -0.437500  0.125000  0.000000     16.000000
 
 Following cartesian coordinates:
            Coordinates               Weight
  0.011245  0.006492  0.000000     16.000000
  0.000000  0.012985  0.000000     16.000000
 -0.011245  0.006492  0.000000     16.000000
  0.033736 -0.006492  0.000000     16.000000
  0.022491  0.025970  0.000000     16.000000
 -0.011245  0.032462  0.000000     16.000000
  0.022491 -0.025970  0.000000     16.000000
 -0.011245 -0.032462  0.000000     16.000000
 -0.033736 -0.006492  0.000000     16.000000
  0.056227 -0.019477  0.000000     16.000000
  0.044981  0.038955  0.000000     16.000000
 -0.011245  0.058432  0.000000     16.000000
  0.044981 -0.038955  0.000000     16.000000
 -0.011245 -0.058432  0.000000     16.000000
 -0.056227 -0.019477  0.000000     16.000000
  0.078717 -0.032462  0.000000     16.000000
  0.067472  0.051940  0.000000     16.000000
 -0.011245  0.084402  0.000000     16.000000
  0.067472 -0.051940  0.000000     16.000000
 -0.011245 -0.084402  0.000000     16.000000
 -0.078717 -0.032462  0.000000     16.000000
 -0.078717  0.058432  0.000000     16.000000
  0.089963 -0.142835  0.000000     16.000000
 -0.011245  0.110372  0.000000     16.000000
  0.089963 -0.064925  0.000000     16.000000
 -0.011245  0.097387  0.000000     16.000000
  0.078717  0.058432  0.000000     16.000000
 -0.056227  0.045447  0.000000     16.000000
 -0.067472 -0.025970  0.000000     16.000000
 -0.011245 -0.071417  0.000000     16.000000
 -0.067472  0.025970  0.000000     16.000000
 -0.011245  0.071417  0.000000     16.000000
  0.056227  0.045447  0.000000     16.000000
 -0.033736  0.032462  0.000000     16.000000
 -0.044981 -0.012985  0.000000     16.000000
 -0.011245 -0.045447  0.000000     16.000000
 -0.044981  0.012985  0.000000     16.000000
 -0.011245  0.045447  0.000000     16.000000
  0.033736  0.032462  0.000000     16.000000
 -0.011245  0.019477  0.000000     16.000000
 -0.022491  0.000000  0.000000     16.000000
 -0.011245 -0.019477  0.000000     16.000000
  0.033736  0.019477  0.000000     16.000000
  0.000000  0.038955  0.000000     16.000000
 -0.033736  0.019477  0.000000     16.000000
  0.056227  0.006492  0.000000     16.000000
  0.022491  0.051940  0.000000     16.000000
 -0.033736  0.045447  0.000000     16.000000
  0.022491 -0.051940  0.000000     16.000000
 -0.033736 -0.045447  0.000000     16.000000
 -0.056227  0.006492  0.000000     16.000000
  0.078717 -0.006492  0.000000     16.000000
  0.044981  0.064925  0.000000     16.000000
 -0.033736  0.071417  0.000000     16.000000
  0.044981 -0.064925  0.000000     16.000000
 -0.033736 -0.071417  0.000000     16.000000
 -0.078717 -0.006492  0.000000     16.000000
 -0.078717  0.084402  0.000000     16.000000
  0.067472 -0.129850  0.000000     16.000000
 -0.033736  0.097387  0.000000     16.000000
  0.067472 -0.077910  0.000000     16.000000
 -0.033736  0.110372  0.000000     16.000000
  0.078717 -0.123357  0.000000     16.000000
 -0.056227  0.071417  0.000000     16.000000
  0.089963 -0.116865  0.000000     16.000000
 -0.033736  0.123357  0.000000     16.000000
  0.089963 -0.090895  0.000000     16.000000
 -0.033736  0.084402  0.000000     16.000000
  0.056227  0.071417  0.000000     16.000000
 -0.033736  0.058432  0.000000     16.000000
 -0.067472  0.000000  0.000000     16.000000
 -0.033736 -0.058432  0.000000     16.000000
  0.056227  0.032462  0.000000     16.000000
  0.000000  0.064925  0.000000     16.000000
 -0.056227  0.032462  0.000000     16.000000
  0.078717  0.019477  0.000000     16.000000
  0.022491  0.077910  0.000000     16.000000
 -0.056227  0.058432  0.000000     16.000000
  0.022491 -0.077910  0.000000     16.000000
 -0.056227 -0.058432  0.000000     16.000000
 -0.078717  0.019477  0.000000     16.000000
 -0.078717  0.110372  0.000000     16.000000
  0.044981 -0.116865  0.000000     16.000000
 -0.056227  0.084402  0.000000     16.000000
  0.044981 -0.090895  0.000000     16.000000
 -0.056227  0.123357  0.000000     16.000000
  0.078717 -0.097387  0.000000     16.000000
 -0.056227  0.097387  0.000000     16.000000
  0.067472 -0.103880  0.000000     16.000000
 -0.056227  0.110372  0.000000     16.000000
  0.078717  0.045447  0.000000     16.000000
  0.000000  0.090895  0.000000     16.000000
 -0.078717  0.045447  0.000000     16.000000
 -0.078717  0.136342  0.000000     16.000000
  0.022491 -0.103880  0.000000     16.000000
 -0.078717  0.071417  0.000000     16.000000
 


--------------------------------------------------------------------------------------------------------




 Dimension of arrays:
   k-points           NKPTS =     96   k-points in BZ     NKDIM =     96   number of bands    NBANDS=    100
   number of dos      NEDOS =    301   number of ions     NIONS =     21
   non local maximal  LDIM  =      6   non local SUM 2l+1 LMDIM =     18
   total plane-waves  NPLWV = 112896
   max r-space proj   IRMAX =   2252   max aug-charges    IRDMAX=  10104
   dimension x,y,z NGX =    28 NGY =   28 NGZ =  144
   dimension x,y,z NGXF=    56 NGYF=   56 NGZF=  288
   support grid    NGXF=    56 NGYF=   56 NGZF=  288
   ions per type =               1   1   4   1  14
   NGX,Y,Z   is equivalent  to a cutoff of   8.38,  8.38,  7.77 a.u.
   NGXF,Y,Z  is equivalent  to a cutoff of  16.75, 16.75, 15.54 a.u.

 SYSTEM =  0.3.Ir1.Au14                            
 POSCAR =  Au  C  H Ir Pt                          

 Startparameter for this run:
   NWRITE =      2    write-flag & timer
   PREC   = normal    normal or accurate (medium, high low for compatibility)
   ISTART =      0    job   : 0-new  1-cont  2-samecut
   ICHARG =      2    charge: 1-file 2-atom 10-const
   ISPIN  =      1    spin polarized calculation?
   LNONCOLLINEAR =      F non collinear calculations
   LSORBIT =      F    spin-orbit coupling
   INIWAV =      1    electr: 0-lowe 1-rand  2-diag
   LASPH  =      F    aspherical Exc in radial PAW
   METAGGA=      F    non-selfconsistent MetaGGA calc.

 Electronic Relaxation 1
   ENCUT  =  350.0 eV  25.72 Ry    5.07 a.u.   8.48  8.48 46.99*2*pi/ulx,y,z
   ENINI  =  350.0     initial cutoff
   ENAUG  =  644.9 eV  augmentation charge cutoff
   NELM   =   1000;   NELMIN=  5; NELMDL= -5     # of ELM steps 
   EDIFF  = 0.1E-04   stopping-criterion for ELM
   LREAL  =      T    real-space projection
   NLSPLINE    = F    spline interpolate recip. space projectors
   LCOMPAT=      F    compatible to vasp.4.4
   GGA_COMPAT  = T    GGA compatible to vasp.4.4-vasp.4.6
   LMAXPAW     = -100 max onsite density
   LMAXMIX     =    2 max onsite mixed and CHGCAR
   VOSKOWN=      0    Vosko Wilk Nusair interpolation
   ROPT   =   -0.00050  -0.00050  -0.00050  -0.00050
   ROPT   =   -0.00050
 Ionic relaxation
   EDIFFG = 0.1E-03   stopping-criterion for IOM
   NSW    =      0    number of steps for IOM
   NBLOCK =      1;   KBLOCK =      1    inner block; outer block 
   IBRION =     -1    ionic relax: 0-MD 1-quasi-New 2-CG
   NFREE  =      0    steps in history (QN), initial steepest desc. (CG)
   ISIF   =      2    stress and relaxation
   IWAVPR =     10    prediction:  0-non 1-charg 2-wave 3-comb
   ISYM   =      2    0-nonsym 1-usesym 2-fastsym
   LCORR  =      T    Harris-Foulkes like correction to forces

   POTIM  = 0.5000    time-step for ionic-motion
   TEIN   =    0.0    initial temperature
   TEBEG  =    0.0;   TEEND  =   0.0 temperature during run
   SMASS  =  -3.00    Nose mass-parameter (am)
   estimated Nose-frequenzy (Omega)   =  0.10E-29 period in steps =****** mass=  -0.706E-27a.u.
   SCALEE = 1.0000    scale energy and forces
   NPACO  =    256;   APACO  = 16.0  distance and # of slots for P.C.
   PSTRESS=    0.0 pullay stress

  Mass of Ions in am
   POMASS = 196.97 12.01  1.00192.22195.08
  Ionic Valenz
   ZVAL   =  11.00  4.00  1.00  9.00 10.00
  Atomic Wigner-Seitz radii
   RWIGS  =  -1.00 -1.00 -1.00 -1.00 -1.00
  virtual crystal weights 
   VCA    =   1.00  1.00  1.00  1.00  1.00
   NELECT =     168.0000    total number of electrons
   NUPDOWN=      -1.0000    fix difference up-down

 DOS related values:
   EMIN   =  10.00;   EMAX   =-10.00  energy-range for DOS
   EFERMI =   0.00
   ISMEAR =     1;   SIGMA  =   0.20  broadening in eV -4-tet -1-fermi 0-gaus

 Electronic relaxation 2 (details)
   IALGO  =     38    algorithm
   LDIAG  =      T    sub-space diagonalisation (order eigenvalues)
   LSUBROT=      F    optimize rotation matrix (better conditioning)
   TURBO    =      0    0=normal 1=particle mesh
   IRESTART =      0    0=no restart 2=restart with 2 vectors
   NREBOOT  =      0    no. of reboots
   NMIN     =      0    reboot dimension
   EREF     =   0.00    reference energy to select bands
   IMIX   =      4    mixing-type and parameters
     AMIX     =   0.40;   BMIX     =  1.00
     AMIX_MAG =   1.60;   BMIX_MAG =  1.00
     AMIN     =   0.10
     WC   =   100.;   INIMIX=   1;  MIXPRE=   1;  MAXMIX= -45

 Intra band minimization:
   WEIMIN = 0.0000     energy-eigenvalue tresh-hold
   EBREAK =  0.25E-07  absolut break condition
   DEPER  =   0.30     relativ break condition  

   TIME   =   0.40     timestep for ELM

  volume/ion in A,a.u.               =      39.24       264.83
  Fermi-wavevector in a.u.,A,eV,Ry     =   0.963488  1.820729 12.630418  0.928310
  Thomas-Fermi vector in A             =   2.093038
 
 Write flags
   LWAVE        =      F    write WAVECAR
   LDOWNSAMPLE  =      F    k-point downsampling of WAVECAR
   LCHARG       =      F    write CHGCAR
   LVTOT        =      F    write LOCPOT, total local potential
   LVHAR        =      F    write LOCPOT, Hartree potential only
   LELF         =      F    write electronic localiz. function (ELF)
   LORBIT       =      0    0 simple, 1 ext, 2 COOP (PROOUT), +10 PAW based schemes


 Dipole corrections
   LMONO  =      F    monopole corrections only (constant potential shift)
   LDIPOL =      F    correct potential (dipole corrections)
   IDIPOL =      3    1-x, 2-y, 3-z, 4-all directions 
   EPSILON=  1.0000000 bulk dielectric constant

 Exchange correlation treatment:
   GGA     =    --    GGA type
   LEXCH   =     8    internal setting for exchange type
   VOSKOWN=      0    Vosko Wilk Nusair interpolation
   LHFCALC =     F    Hartree Fock is set to
   LHFONE  =     F    Hartree Fock one center treatment
   AEXX    =    0.0000 exact exchange contribution

 Linear response parameters
   LEPSILON=     F    determine dielectric tensor
   LRPA    =     F    only Hartree local field effects (RPA)
   LNABLA  =     F    use nabla operator in PAW spheres
   LVEL    =     F    velocity operator in full k-point grid
   LINTERFAST=   F  fast interpolation
   KINTER  =     0    interpolate to denser k-point grid
   CSHIFT  =0.1000    complex shift for real part using Kramers Kronig
   OMEGAMAX=  -1.0    maximum frequency
   DEG_THRESHOLD= 0.2000000E-02 threshold for treating states as degnerate
   RTIME   =   -0.100 relaxation time in fs
  (WPLASMAI=    0.000 imaginary part of plasma frequency in eV, 0.658/RTIME)
   DFIELD  = 0.0000000 0.0000000 0.0000000 field for delta impulse in time
 
 Orbital magnetization related:
   ORBITALMAG=     F  switch on orbital magnetization
   LCHIMAG   =     F  perturbation theory with respect to B field
   DQ        =  0.001000  dq finite difference perturbation B field
   LLRAUG    =     F  two centre corrections for induced B field



--------------------------------------------------------------------------------------------------------


 Static calculation
 charge density and potential will be updated during run
 non-spin polarized calculation
 Variant of blocked Davidson
 Davidson routine will perform the subspace rotation
 perform sub-space diagonalisation
    after iterative eigenvector-optimisation
 modified Broyden-mixing scheme, WC =      100.0
 initial mixing is a Kerker type mixing with AMIX =  0.4000 and BMIX =      1.0000
 Hartree-type preconditioning will be used
 using additional bands           16
 real space projection scheme for non local part
 use partial core corrections
 calculate Harris-corrections to forces 
   (improved forces if not selfconsistent)
 use gradient corrections 
 use of overlap-Matrix (Vanderbilt PP)
 Methfessel and Paxton  Order N= 1 SIGMA  =   0.20


--------------------------------------------------------------------------------------------------------


  energy-cutoff  :      350.00
  volume of cell :      824.13
      direct lattice vectors                 reciprocal lattice vectors
     5.557859300  0.000000000  0.000000000     0.179925390 -0.103879972  0.000000000
     2.778929650  4.813247345  0.000000000     0.000000000  0.207759944  0.000000000
     0.000000000  0.000000000 30.806959674     0.000000000  0.000000000  0.032460198

  length of vectors
     5.557859300  5.557859300 30.806959674     0.207759944  0.207759944  0.032460198


 
 k-points in units of 2pi/SCALE and weight: 0.3.Ir1.Au14                            
   0.01124534  0.00649250  0.00000000       0.010
   0.00000000  0.01298500  0.00000000       0.010
  -0.01124534  0.00649250  0.00000000       0.010
   0.03373601 -0.00649250  0.00000000       0.010
   0.02249067  0.02596999  0.00000000       0.010
  -0.01124534  0.03246249  0.00000000       0.010
   0.02249067 -0.02596999  0.00000000       0.010
  -0.01124534 -0.03246249  0.00000000       0.010
  -0.03373601 -0.00649250  0.00000000       0.010
   0.05622668 -0.01947749  0.00000000       0.010
   0.04498135  0.03895499  0.00000000       0.010
  -0.01124534  0.05843248  0.00000000       0.010
   0.04498135 -0.03895499  0.00000000       0.010
  -0.01124534 -0.05843248  0.00000000       0.010
  -0.05622668 -0.01947749  0.00000000       0.010
   0.07871736 -0.03246249  0.00000000       0.010
   0.06747202  0.05193999  0.00000000       0.010
  -0.01124534  0.08440248  0.00000000       0.010
   0.06747202 -0.05193999  0.00000000       0.010
  -0.01124534 -0.08440248  0.00000000       0.010
  -0.07871736 -0.03246249  0.00000000       0.010
  -0.07871736  0.05843248  0.00000000       0.010
   0.08996269 -0.14283496  0.00000000       0.010
  -0.01124534  0.11037247  0.00000000       0.010
   0.08996269 -0.06492498  0.00000000       0.010
  -0.01124534  0.09738747  0.00000000       0.010
   0.07871736  0.05843248  0.00000000       0.010
  -0.05622668  0.04544749  0.00000000       0.010
  -0.06747202 -0.02596999  0.00000000       0.010
  -0.01124534 -0.07141748  0.00000000       0.010
  -0.06747202  0.02596999  0.00000000       0.010
  -0.01124534  0.07141748  0.00000000       0.010
   0.05622668  0.04544749  0.00000000       0.010
  -0.03373601  0.03246249  0.00000000       0.010
  -0.04498135 -0.01298500  0.00000000       0.010
  -0.01124534 -0.04544749  0.00000000       0.010
  -0.04498135  0.01298500  0.00000000       0.010
  -0.01124534  0.04544749  0.00000000       0.010
   0.03373601  0.03246249  0.00000000       0.010
  -0.01124534  0.01947749  0.00000000       0.010
  -0.02249067  0.00000000  0.00000000       0.010
  -0.01124534 -0.01947749  0.00000000       0.010
   0.03373601  0.01947749  0.00000000       0.010
   0.00000000  0.03895499  0.00000000       0.010
  -0.03373601  0.01947749  0.00000000       0.010
   0.05622668  0.00649250  0.00000000       0.010
   0.02249067  0.05193999  0.00000000       0.010
  -0.03373601  0.04544749  0.00000000       0.010
   0.02249067 -0.05193999  0.00000000       0.010
  -0.03373601 -0.04544749  0.00000000       0.010
  -0.05622668  0.00649250  0.00000000       0.010
   0.07871736 -0.00649250  0.00000000       0.010
   0.04498135  0.06492498  0.00000000       0.010
  -0.03373601  0.07141748  0.00000000       0.010
   0.04498135 -0.06492498  0.00000000       0.010
  -0.03373601 -0.07141748  0.00000000       0.010
  -0.07871736 -0.00649250  0.00000000       0.010
  -0.07871736  0.08440248  0.00000000       0.010
   0.06747202 -0.12984997  0.00000000       0.010
  -0.03373601  0.09738747  0.00000000       0.010
   0.06747202 -0.07790998  0.00000000       0.010
  -0.03373601  0.11037247  0.00000000       0.010
   0.07871736 -0.12335747  0.00000000       0.010
  -0.05622668  0.07141748  0.00000000       0.010
   0.08996269 -0.11686497  0.00000000       0.010
  -0.03373601  0.12335747  0.00000000       0.010
   0.08996269 -0.09089498  0.00000000       0.010
  -0.03373601  0.08440248  0.00000000       0.010
   0.05622668  0.07141748  0.00000000       0.010
  -0.03373601  0.05843248  0.00000000       0.010
  -0.06747202  0.00000000  0.00000000       0.010
  -0.03373601 -0.05843248  0.00000000       0.010
   0.05622668  0.03246249  0.00000000       0.010
   0.00000000  0.06492498  0.00000000       0.010
  -0.05622668  0.03246249  0.00000000       0.010
   0.07871736  0.01947749  0.00000000       0.010
   0.02249067  0.07790998  0.00000000       0.010
  -0.05622668  0.05843248  0.00000000       0.010
   0.02249067 -0.07790998  0.00000000       0.010
  -0.05622668 -0.05843248  0.00000000       0.010
  -0.07871736  0.01947749  0.00000000       0.010
  -0.07871736  0.11037247  0.00000000       0.010
   0.04498135 -0.11686497  0.00000000       0.010
  -0.05622668  0.08440248  0.00000000       0.010
   0.04498135 -0.09089498  0.00000000       0.010
  -0.05622668  0.12335747  0.00000000       0.010
   0.07871736 -0.09738747  0.00000000       0.010
  -0.05622668  0.09738747  0.00000000       0.010
   0.06747202 -0.10387997  0.00000000       0.010
  -0.05622668  0.11037247  0.00000000       0.010
   0.07871736  0.04544749  0.00000000       0.010
   0.00000000  0.09089498  0.00000000       0.010
  -0.07871736  0.04544749  0.00000000       0.010
  -0.07871736  0.13634246  0.00000000       0.010
   0.02249067 -0.10387997  0.00000000       0.010
  -0.07871736  0.07141748  0.00000000       0.010
 
 k-points in reciprocal lattice and weights: 0.3.Ir1.Au14                            
   0.06250000  0.06250000  0.00000000       0.010
   0.00000000  0.06250000  0.00000000       0.010
  -0.06250000  0.00000000  0.00000000       0.010
   0.18750000  0.06250000  0.00000000       0.010
   0.12500000  0.18750000  0.00000000       0.010
  -0.06250000  0.12500000  0.00000000       0.010
   0.12500000 -0.06250000  0.00000000       0.010
  -0.06250000 -0.18750000  0.00000000       0.010
  -0.18750000 -0.12500000  0.00000000       0.010
   0.31250000  0.06250000  0.00000000       0.010
   0.25000000  0.31250000  0.00000000       0.010
  -0.06250000  0.25000000  0.00000000       0.010
   0.25000000 -0.06250000  0.00000000       0.010
  -0.06250000 -0.31250000  0.00000000       0.010
  -0.31250000 -0.25000000  0.00000000       0.010
   0.43750000  0.06250000  0.00000000       0.010
   0.37500000  0.43750000  0.00000000       0.010
  -0.06250000  0.37500000  0.00000000       0.010
   0.37500000 -0.06250000  0.00000000       0.010
  -0.06250000 -0.43750000  0.00000000       0.010
  -0.43750000 -0.37500000  0.00000000       0.010
  -0.43750000  0.06250000  0.00000000       0.010
   0.50000000 -0.43750000  0.00000000       0.010
  -0.06250000  0.50000000  0.00000000       0.010
   0.50000000 -0.06250000  0.00000000       0.010
  -0.06250000  0.43750000  0.00000000       0.010
   0.43750000  0.50000000  0.00000000       0.010
  -0.31250000  0.06250000  0.00000000       0.010
  -0.37500000 -0.31250000  0.00000000       0.010
  -0.06250000 -0.37500000  0.00000000       0.010
  -0.37500000 -0.06250000  0.00000000       0.010
  -0.06250000  0.31250000  0.00000000       0.010
   0.31250000  0.37500000  0.00000000       0.010
  -0.18750000  0.06250000  0.00000000       0.010
  -0.25000000 -0.18750000  0.00000000       0.010
  -0.06250000 -0.25000000  0.00000000       0.010
  -0.25000000 -0.06250000  0.00000000       0.010
  -0.06250000  0.18750000  0.00000000       0.010
   0.18750000  0.25000000  0.00000000       0.010
  -0.06250000  0.06250000  0.00000000       0.010
  -0.12500000 -0.06250000  0.00000000       0.010
  -0.06250000 -0.12500000  0.00000000       0.010
   0.18750000  0.18750000  0.00000000       0.010
   0.00000000  0.18750000  0.00000000       0.010
  -0.18750000  0.00000000  0.00000000       0.010
   0.31250000  0.18750000  0.00000000       0.010
   0.12500000  0.31250000  0.00000000       0.010
  -0.18750000  0.12500000  0.00000000       0.010
   0.12500000 -0.18750000  0.00000000       0.010
  -0.18750000 -0.31250000  0.00000000       0.010
  -0.31250000 -0.12500000  0.00000000       0.010
   0.43750000  0.18750000  0.00000000       0.010
   0.25000000  0.43750000  0.00000000       0.010
  -0.18750000  0.25000000  0.00000000       0.010
   0.25000000 -0.18750000  0.00000000       0.010
  -0.18750000 -0.43750000  0.00000000       0.010
  -0.43750000 -0.25000000  0.00000000       0.010
  -0.43750000  0.18750000  0.00000000       0.010
   0.37500000 -0.43750000  0.00000000       0.010
  -0.18750000  0.37500000  0.00000000       0.010
   0.37500000 -0.18750000  0.00000000       0.010
  -0.18750000  0.43750000  0.00000000       0.010
   0.43750000 -0.37500000  0.00000000       0.010
  -0.31250000  0.18750000  0.00000000       0.010
   0.50000000 -0.31250000  0.00000000       0.010
  -0.18750000  0.50000000  0.00000000       0.010
   0.50000000 -0.18750000  0.00000000       0.010
  -0.18750000  0.31250000  0.00000000       0.010
   0.31250000  0.50000000  0.00000000       0.010
  -0.18750000  0.18750000  0.00000000       0.010
  -0.37500000 -0.18750000  0.00000000       0.010
  -0.18750000 -0.37500000  0.00000000       0.010
   0.31250000  0.31250000  0.00000000       0.010
   0.00000000  0.31250000  0.00000000       0.010
  -0.31250000  0.00000000  0.00000000       0.010
   0.43750000  0.31250000  0.00000000       0.010
   0.12500000  0.43750000  0.00000000       0.010
  -0.31250000  0.12500000  0.00000000       0.010
   0.12500000 -0.31250000  0.00000000       0.010
  -0.31250000 -0.43750000  0.00000000       0.010
  -0.43750000 -0.12500000  0.00000000       0.010
  -0.43750000  0.31250000  0.00000000       0.010
   0.25000000 -0.43750000  0.00000000       0.010
  -0.31250000  0.25000000  0.00000000       0.010
   0.25000000 -0.31250000  0.00000000       0.010
  -0.31250000  0.43750000  0.00000000       0.010
   0.43750000 -0.25000000  0.00000000       0.010
  -0.31250000  0.31250000  0.00000000       0.010
   0.37500000 -0.31250000  0.00000000       0.010
  -0.31250000  0.37500000  0.00000000       0.010
   0.43750000  0.43750000  0.00000000       0.010
   0.00000000  0.43750000  0.00000000       0.010
  -0.43750000 -0.00000000  0.00000000       0.010
  -0.43750000  0.43750000  0.00000000       0.010
   0.12500000 -0.43750000  0.00000000       0.010
  -0.43750000  0.12500000  0.00000000       0.010
 
 position of ions in fractional coordinates (direct lattice) 
   0.01574768  0.48215844  0.62067827
   0.00296799  0.97947042  0.69338062
   0.03514317  0.46475115  0.67099061
   0.92212050  0.19241338  0.70533281
   0.86633692  0.89989697  0.70362272
   0.21626189  0.84282610  0.70502110
   0.49706083  0.00130281  0.39241422
   0.51640398  0.48244706  0.61712786
   0.51607453  0.98223684  0.61715428
   0.01364066  0.98280816  0.62611812
   0.33741989  0.82467208  0.54406167
   0.00043314  0.99979929  0.39262800
   0.84280458  0.32111319  0.54367514
   0.66861464  0.66281936  0.46779759
   0.16837544  0.66292567  0.46910320
   0.66887119  0.16268935  0.46751485
   0.16844786  0.16259879  0.46904471
   0.49696520  0.50155264  0.39240769
   0.00023886  0.49992227  0.39259260
   0.34076750  0.32300713  0.54298302
   0.84282966  0.82278330  0.54380117
 
 position of ions in cartesian coordinates  (Angst):
   1.42740778  2.32074782 19.12121039
   2.73837504  4.71443339 21.36094891
   1.48683156  2.23696225 20.67118067
   5.65971921  0.92613317 21.72915952
   7.31572907  4.33142670 21.67647672
   3.54410756  4.05673047 21.71955669
   2.76621457  0.00627073 12.08908900
   4.21078712  2.32213705 19.01183311
   5.59783671  4.72774884 19.01264708
   2.80696762  4.73049877 19.28879576
   4.16703795  3.96935071 16.76088601
   2.78077921  4.81228127 12.09567510
   5.57654026  1.54559721 16.74897807
   5.55799450  3.19031354 14.41142154
   2.77803078  3.19082522 14.45164327
   4.16959419  0.78306407 14.40271117
   1.38806011  0.78262818 14.44984161
   4.15584216  2.41409691 12.08888780
   1.39057637  2.40624954 12.09458434
   2.79155190  1.55471320 16.72765605
   6.97078559  3.96025954 16.75286080
 


--------------------------------------------------------------------------------------------------------


 k-point  1 :   0.0625 0.0625 0.0000  plane waves:   12325
 k-point  2 :   0.0000 0.0625 0.0000  plane waves:   12325
 k-point  3 :  -0.0625 0.0000 0.0000  plane waves:   12325
 k-point  4 :   0.1875 0.0625 0.0000  plane waves:   12294
 k-point  5 :   0.1250 0.1875 0.0000  plane waves:   12294
 k-point  6 :  -0.0625 0.1250 0.0000  plane waves:   12294
 k-point  7 :   0.1250-0.0625 0.0000  plane waves:   12294
 k-point  8 :  -0.0625-0.1875 0.0000  plane waves:   12294
 k-point  9 :  -0.1875-0.1250 0.0000  plane waves:   12294
 k-point 10 :   0.3125 0.0625 0.0000  plane waves:   12263
 k-point 11 :   0.2500 0.3125 0.0000  plane waves:   12263
 k-point 12 :  -0.0625 0.2500 0.0000  plane waves:   12263
 k-point 13 :   0.2500-0.0625 0.0000  plane waves:   12263
 k-point 14 :  -0.0625-0.3125 0.0000  plane waves:   12263
 k-point 15 :  -0.3125-0.2500 0.0000  plane waves:   12263
 k-point 16 :   0.4375 0.0625 0.0000  plane waves:   12221
 k-point 17 :   0.3750 0.4375 0.0000  plane waves:   12221
 k-point 18 :  -0.0625 0.3750 0.0000  plane waves:   12221
 k-point 19 :   0.3750-0.0625 0.0000  plane waves:   12221
 k-point 20 :  -0.0625-0.4375 0.0000  plane waves:   12221
 k-point 21 :  -0.4375-0.3750 0.0000  plane waves:   12221
 k-point 22 :  -0.4375 0.0625 0.0000  plane waves:   12211
 k-point 23 :   0.5000-0.4375 0.0000  plane waves:   12211
 k-point 24 :  -0.0625 0.5000 0.0000  plane waves:   12211
 k-point 25 :   0.5000-0.0625 0.0000  plane waves:   12211
 k-point 26 :  -0.0625 0.4375 0.0000  plane waves:   12211
 k-point 27 :   0.4375 0.5000 0.0000  plane waves:   12211
 k-point 28 :  -0.3125 0.0625 0.0000  plane waves:   12242
 k-point 29 :  -0.3750-0.3125 0.0000  plane waves:   12242
 k-point 30 :  -0.0625-0.3750 0.0000  plane waves:   12242
 k-point 31 :  -0.3750-0.0625 0.0000  plane waves:   12242
 k-point 32 :  -0.0625 0.3125 0.0000  plane waves:   12242
 k-point 33 :   0.3125 0.3750 0.0000  plane waves:   12242
 k-point 34 :  -0.1875 0.0625 0.0000  plane waves:   12280
 k-point 35 :  -0.2500-0.1875 0.0000  plane waves:   12280
 k-point 36 :  -0.0625-0.2500 0.0000  plane waves:   12280
 k-point 37 :  -0.2500-0.0625 0.0000  plane waves:   12280
 k-point 38 :  -0.0625 0.1875 0.0000  plane waves:   12280
 k-point 39 :   0.1875 0.2500 0.0000  plane waves:   12280
 k-point 40 :  -0.0625 0.0625 0.0000  plane waves:   12329
 k-point 41 :  -0.1250-0.0625 0.0000  plane waves:   12329
 k-point 42 :  -0.0625-0.1250 0.0000  plane waves:   12329
 k-point 43 :   0.1875 0.1875 0.0000  plane waves:   12277
 k-point 44 :   0.0000 0.1875 0.0000  plane waves:   12277
 k-point 45 :  -0.1875 0.0000 0.0000  plane waves:   12277
 k-point 46 :   0.3125 0.1875 0.0000  plane waves:   12288
 k-point 47 :   0.1250 0.3125 0.0000  plane waves:   12288
 k-point 48 :  -0.1875 0.1250 0.0000  plane waves:   12288
 k-point 49 :   0.1250-0.1875 0.0000  plane waves:   12288
 k-point 50 :  -0.1875-0.3125 0.0000  plane waves:   12288
 k-point 51 :  -0.3125-0.1250 0.0000  plane waves:   12288
 k-point 52 :   0.4375 0.1875 0.0000  plane waves:   12234
 k-point 53 :   0.2500 0.4375 0.0000  plane waves:   12234
 k-point 54 :  -0.1875 0.2500 0.0000  plane waves:   12234
 k-point 55 :   0.2500-0.1875 0.0000  plane waves:   12234
 k-point 56 :  -0.1875-0.4375 0.0000  plane waves:   12234
 k-point 57 :  -0.4375-0.2500 0.0000  plane waves:   12234
 k-point 58 :  -0.4375 0.1875 0.0000  plane waves:   12216
 k-point 59 :   0.3750-0.4375 0.0000  plane waves:   12216
 k-point 60 :  -0.1875 0.3750 0.0000  plane waves:   12216
 k-point 61 :   0.3750-0.1875 0.0000  plane waves:   12216
 k-point 62 :  -0.1875 0.4375 0.0000  plane waves:   12216
 k-point 63 :   0.4375-0.3750 0.0000  plane waves:   12216
 k-point 64 :  -0.3125 0.1875 0.0000  plane waves:   12215
 k-point 65 :   0.5000-0.3125 0.0000  plane waves:   12215
 k-point 66 :  -0.1875 0.5000 0.0000  plane waves:   12215
 k-point 67 :   0.5000-0.1875 0.0000  plane waves:   12215
 k-point 68 :  -0.1875 0.3125 0.0000  plane waves:   12215
 k-point 69 :   0.3125 0.5000 0.0000  plane waves:   12215
 k-point 70 :  -0.1875 0.1875 0.0000  plane waves:   12289
 k-point 71 :  -0.3750-0.1875 0.0000  plane waves:   12289
 k-point 72 :  -0.1875-0.3750 0.0000  plane waves:   12289
 k-point 73 :   0.3125 0.3125 0.0000  plane waves:   12275
 k-point 74 :   0.0000 0.3125 0.0000  plane waves:   12275
 k-point 75 :  -0.3125 0.0000 0.0000  plane waves:   12275
 k-point 76 :   0.4375 0.3125 0.0000  plane waves:   12239
 k-point 77 :   0.1250 0.4375 0.0000  plane waves:   12239
 k-point 78 :  -0.3125 0.1250 0.0000  plane waves:   12239
 k-point 79 :   0.1250-0.3125 0.0000  plane waves:   12239
 k-point 80 :  -0.3125-0.4375 0.0000  plane waves:   12239
 k-point 81 :  -0.4375-0.1250 0.0000  plane waves:   12239
 k-point 82 :  -0.4375 0.3125 0.0000  plane waves:   12235
 k-point 83 :   0.2500-0.4375 0.0000  plane waves:   12235
 k-point 84 :  -0.3125 0.2500 0.0000  plane waves:   12235
 k-point 85 :   0.2500-0.3125 0.0000  plane waves:   12235
 k-point 86 :  -0.3125 0.4375 0.0000  plane waves:   12235
 k-point 87 :   0.4375-0.2500 0.0000  plane waves:   12235
 k-point 88 :  -0.3125 0.3125 0.0000  plane waves:   12232
 k-point 89 :   0.3750-0.3125 0.0000  plane waves:   12232
 k-point 90 :  -0.3125 0.3750 0.0000  plane waves:   12232
 k-point 91 :   0.4375 0.4375 0.0000  plane waves:   12200
 k-point 92 :   0.0000 0.4375 0.0000  plane waves:   12200
 k-point 93 :  -0.4375-0.0000 0.0000  plane waves:   12200
 k-point 94 :  -0.4375 0.4375 0.0000  plane waves:   12214
 k-point 95 :   0.1250-0.4375 0.0000  plane waves:   12214
 k-point 96 :  -0.4375 0.1250 0.0000  plane waves:   12214

 maximum and minimum number of plane-waves per node :      3101     2992

 maximum number of plane-waves:     12329
 maximum index in each direction: 
   IXMAX=    8   IYMAX=    8   IZMAX=   46
   IXMIN=   -8   IYMIN=   -8   IZMIN=  -46


 real space projection operators:
  total allocation   :       5092.53 KBytes
  max/ min on nodes  :       1275.11       1270.93


 parallel 3D FFT for wavefunctions:
    minimum data exchange during FFTs selected (reduces bandwidth)
 parallel 3D FFT for charge:
    minimum data exchange during FFTs selected (reduces bandwidth)


 total amount of memory used by VASP MPI-rank0   164312. kBytes
=======================================================================

   base      :      30000. kBytes
   nonlr-proj:       2359. kBytes
   fftplans  :       2967. kBytes
   grid      :       6321. kBytes
   one-center:         93. kBytes
   wavefun   :     122572. kBytes
 
     INWAV:  cpu time    0.0000: real time    0.0000
 Broyden mixing: mesh for mixing (old mesh)
   NGX = 17   NGY = 17   NGZ = 93
  (NGX  = 56   NGY  = 56   NGZ  =288)
  gives a total of  26877 points

 initial charge density was supplied:
 charge density of overlapping atoms calculated
 number of electron     168.0000000 magnetization 
 keeping initial charge density in first step


--------------------------------------------------------------------------------------------------------


 Maximum index for non-local projection operator          539
 Maximum index for augmentation-charges          720 (set IRDMAX)


--------------------------------------------------------------------------------------------------------


 First call to EWALD:  gamma=   0.189
 Maximum number of real-space cells 5x 5x 1
 Maximum number of reciprocal cells 2x 2x 8

    FEWALD:  cpu time    0.0014: real time    0.0014


--------------------------------------- Iteration      1(   1)  ---------------------------------------


    POTLOK:  cpu time    0.0260: real time    0.0326
    SETDIJ:  cpu time    0.0035: real time    0.0035
     EDDAV:  cpu time   13.8335: real time   13.8339
       DOS:  cpu time    0.0075: real time    0.0075
    --------------------------------------------
      LOOP:  cpu time   13.8706: real time   13.8776

 eigenvalue-minimisations  : 19288
 total energy-change (2. order) : 0.1028883E+04  (-0.5832091E+04)
 number of electron     168.0000000 magnetization 
 augmentation part      168.0000000 magnetization 

 Free energy of the ion-electron system (eV)
  ---------------------------------------------------
  alpha Z        PSCENC =       324.87461712
  Ewald energy   TEWEN  =    100859.92405016
  -Hartree energ DENC   =   -113148.21655059
  -exchange      EXHF   =         0.00000000
  -V(xc)+E(xc)   XCENC  =        69.12316578
  PAW double counting   =     11288.27476651   -10829.50941267
  entropy T*S    EENTRO =         0.00181542
  eigenvalues    EBANDS =       573.77327277
  atomic energy  EATOM  =     11890.63736546
  Solvation  Ediel_sol  =         0.00000000
  ---------------------------------------------------
  free energy    TOTEN  =      1028.88308995 eV

  energy without entropy =     1028.88127454  energy(sigma->0) =     1028.88248481


--------------------------------------------------------------------------------------------------------




--------------------------------------- Iteration      1(   2)  ---------------------------------------


     EDDAV:  cpu time   16.4734: real time   16.4740
       DOS:  cpu time    0.0084: real time    0.0084
    --------------------------------------------
      LOOP:  cpu time   16.4818: real time   16.4824

 eigenvalue-minimisations  : 23984
 total energy-change (2. order) :-0.1058484E+04  (-0.9836532E+03)
 number of electron     168.0000000 magnetization 
 augmentation part      168.0000000 magnetization 

 Free energy of the ion-electron system (eV)
  ---------------------------------------------------
  alpha Z        PSCENC =       324.87461712
  Ewald energy   TEWEN  =    100859.92405016
  -Hartree energ DENC   =   -113148.21655059
  -exchange      EXHF   =         0.00000000
  -V(xc)+E(xc)   XCENC  =        69.12316578
  PAW double counting   =     11288.27476651   -10829.50941267
  entropy T*S    EENTRO =        -0.00095640
  eigenvalues    EBANDS =      -484.70758692
  atomic energy  EATOM  =     11890.63736546
  Solvation  Ediel_sol  =         0.00000000
  ---------------------------------------------------
  free energy    TOTEN  =       -29.60054156 eV

  energy without entropy =      -29.59958515  energy(sigma->0) =      -29.60022275


--------------------------------------------------------------------------------------------------------




--------------------------------------- Iteration      1(   3)  ---------------------------------------


     EDDAV:  cpu time   15.9997: real time   16.0044
       DOS:  cpu time    0.0087: real time    0.0087
    --------------------------------------------
      LOOP:  cpu time   16.0084: real time   16.0131

 eigenvalue-minimisations  : 23056
 total energy-change (2. order) :-0.9140927E+02  (-0.8454727E+02)
 number of electron     168.0000000 magnetization 
 augmentation part      168.0000000 magnetization 

 Free energy of the ion-electron system (eV)
  ---------------------------------------------------
  alpha Z        PSCENC =       324.87461712
  Ewald energy   TEWEN  =    100859.92405016
  -Hartree energ DENC   =   -113148.21655059
  -exchange      EXHF   =         0.00000000
  -V(xc)+E(xc)   XCENC  =        69.12316578
  PAW double counting   =     11288.27476651   -10829.50941267
  entropy T*S    EENTRO =        -0.02121284
  eigenvalues    EBANDS =      -576.09659771
  atomic energy  EATOM  =     11890.63736546
  Solvation  Ediel_sol  =         0.00000000
  ---------------------------------------------------
  free energy    TOTEN  =      -121.00980877 eV

  energy without entropy =     -120.98859593  energy(sigma->0) =     -121.00273783


--------------------------------------------------------------------------------------------------------




--------------------------------------- Iteration      1(   4)  ---------------------------------------


     EDDAV:  cpu time   17.3434: real time   17.3440
       DOS:  cpu time    0.0088: real time    0.0088
    --------------------------------------------
      LOOP:  cpu time   17.3522: real time   17.3528

 eigenvalue-minimisations  : 25568
 total energy-change (2. order) :-0.4446079E+01  (-0.4234257E+01)
 number of electron     168.0000000 magnetization 
 augmentation part      168.0000000 magnetization 

 Free energy of the ion-electron system (eV)
  ---------------------------------------------------
  alpha Z        PSCENC =       324.87461712
  Ewald energy   TEWEN  =    100859.92405016
  -Hartree energ DENC   =   -113148.21655059
  -exchange      EXHF   =         0.00000000
  -V(xc)+E(xc)   XCENC  =        69.12316578
  PAW double counting   =     11288.27476651   -10829.50941267
  entropy T*S    EENTRO =        -0.03184620
  eigenvalues    EBANDS =      -580.53204341
  atomic energy  EATOM  =     11890.63736546
  Solvation  Ediel_sol  =         0.00000000
  ---------------------------------------------------
  free energy    TOTEN  =      -125.45588784 eV

  energy without entropy =     -125.42404164  energy(sigma->0) =     -125.44527244


--------------------------------------------------------------------------------------------------------




--------------------------------------- Iteration      1(   5)  ---------------------------------------


     EDDAV:  cpu time   17.8784: real time   17.8848
       DOS:  cpu time    0.0089: real time    0.0089
    CHARGE:  cpu time    0.7267: real time    0.7268
    MIXING:  cpu time    0.0011: real time    0.0011
    --------------------------------------------
      LOOP:  cpu time   18.6151: real time   18.6216

 eigenvalue-minimisations  : 26500
 total energy-change (2. order) :-0.1392349E+00  (-0.1380132E+00)
 number of electron     168.0000033 magnetization 
 augmentation part       46.7701130 magnetization 

 Broyden mixing:
  rms(total) = 0.43066E+01    rms(broyden)= 0.43063E+01
  rms(prec ) = 0.43557E+01
  weight for this iteration     100.00

 Free energy of the ion-electron system (eV)
  ---------------------------------------------------
  alpha Z        PSCENC =       324.87461712
  Ewald energy   TEWEN  =    100859.92405016
  -Hartree energ DENC   =   -113148.21655059
  -exchange      EXHF   =         0.00000000
  -V(xc)+E(xc)   XCENC  =        69.12316578
  PAW double counting   =     11288.27476651   -10829.50941267
  entropy T*S    EENTRO =        -0.03196237
  eigenvalues    EBANDS =      -580.67116210
  atomic energy  EATOM  =     11890.63736546
  Solvation  Ediel_sol  =         0.00000000
  ---------------------------------------------------
  free energy    TOTEN  =      -125.59512270 eV

  energy without entropy =     -125.56316033  energy(sigma->0) =     -125.58446858


--------------------------------------------------------------------------------------------------------




--------------------------------------- Iteration      1(   6)  ---------------------------------------


    POTLOK:  cpu time    0.0239: real time    0.0240
    SETDIJ:  cpu time    0.0035: real time    0.0035
     EDDAV:  cpu time   15.9026: real time   15.9030
       DOS:  cpu time    0.0101: real time    0.0101
    CHARGE:  cpu time    0.7266: real time    0.7266
    MIXING:  cpu time    0.0011: real time    0.0011
    --------------------------------------------
      LOOP:  cpu time   16.6679: real time   16.6683

 eigenvalue-minimisations  : 22832
 total energy-change (2. order) : 0.7206628E+01  (-0.3858830E+01)
 number of electron     168.0000020 magnetization 
 augmentation part       49.8269865 magnetization 

 Broyden mixing:
  rms(total) = 0.32973E+01    rms(broyden)= 0.32972E+01
  rms(prec ) = 0.34792E+01
  weight for this iteration     100.00

 eigenvalues of (default mixing * dielectric matrix)
  average eigenvalue GAMMA=   1.0828
  1.0828

 Free energy of the ion-electron system (eV)
  ---------------------------------------------------
  alpha Z        PSCENC =       324.87461712
  Ewald energy   TEWEN  =    100859.92405016
  -Hartree energ DENC   =   -112918.23309112
  -exchange      EXHF   =         0.00000000
  -V(xc)+E(xc)   XCENC  =        65.79810632
  PAW double counting   =     12533.00295752   -12098.61189579
  entropy T*S    EENTRO =        -0.01161793
  eigenvalues    EBANDS =      -775.76898684
  atomic energy  EATOM  =     11890.63736546
  Solvation  Ediel_sol  =         0.00000000
  ---------------------------------------------------
  free energy    TOTEN  =      -118.38849509 eV

  energy without entropy =     -118.37687716  energy(sigma->0) =     -118.38462244


--------------------------------------------------------------------------------------------------------




--------------------------------------- Iteration      1(   7)  ---------------------------------------


    POTLOK:  cpu time    0.0219: real time    0.0244
    SETDIJ:  cpu time    0.0036: real time    0.0036
     EDDAV:  cpu time   19.5945: real time   19.5949
       DOS:  cpu time    0.0100: real time    0.0100
    CHARGE:  cpu time    0.7226: real time    0.7226
    MIXING:  cpu time    0.0013: real time    0.0013
    --------------------------------------------
      LOOP:  cpu time   20.3539: real time   20.3567

 eigenvalue-minimisations  : 29580
 total energy-change (2. order) :-0.3885207E+02  (-0.1650977E+02)
 number of electron     168.0000041 magnetization 
 augmentation part       48.7085162 magnetization 

 Broyden mixing:
  rms(total) = 0.55333E+01    rms(broyden)= 0.55332E+01
  rms(prec ) = 0.65447E+01
  weight for this iteration     100.00

 eigenvalues of (default mixing * dielectric matrix)
  average eigenvalue GAMMA=   0.8877
  1.5821  0.1932

 Free energy of the ion-electron system (eV)
  ---------------------------------------------------
  alpha Z        PSCENC =       324.87461712
  Ewald energy   TEWEN  =    100859.92405016
  -Hartree energ DENC   =   -113125.03205822
  -exchange      EXHF   =         0.00000000
  -V(xc)+E(xc)   XCENC  =        65.50710510
  PAW double counting   =     13389.81151508   -12963.28038972
  entropy T*S    EENTRO =         0.00341415
  eigenvalues    EBANDS =      -599.68618278
  atomic energy  EATOM  =     11890.63736546
  Solvation  Ediel_sol  =         0.00000000
  ---------------------------------------------------
  free energy    TOTEN  =      -157.24056366 eV

  energy without entropy =     -157.24397780  energy(sigma->0) =     -157.24170171


--------------------------------------------------------------------------------------------------------




--------------------------------------- Iteration      1(   8)  ---------------------------------------


    POTLOK:  cpu time    0.0233: real time    0.0233
    SETDIJ:  cpu time    0.0034: real time    0.0034
     EDDAV:  cpu time   19.8536: real time   19.8540
       DOS:  cpu time    0.0094: real time    0.0094
    CHARGE:  cpu time    0.7219: real time    0.7219
    MIXING:  cpu time    0.0011: real time    0.0011
    --------------------------------------------
      LOOP:  cpu time   20.6126: real time   20.6131

 eigenvalue-minimisations  : 30008
 total energy-change (2. order) : 0.2286593E+02  (-0.7062499E+01)
 number of electron     168.0000034 magnetization 
 augmentation part       49.6093155 magnetization 

 Broyden mixing:
  rms(total) = 0.38264E+01    rms(broyden)= 0.38263E+01
  rms(prec ) = 0.43693E+01
  weight for this iteration     100.00

 eigenvalues of (default mixing * dielectric matrix)
  average eigenvalue GAMMA=   0.8026
  1.9057  0.2511  0.2511

 Free energy of the ion-electron system (eV)
  ---------------------------------------------------
  alpha Z        PSCENC =       324.87461712
  Ewald energy   TEWEN  =    100859.92405016
  -Hartree energ DENC   =   -113056.64254370
  -exchange      EXHF   =         0.00000000
  -V(xc)+E(xc)   XCENC  =        64.93634444
  PAW double counting   =     14104.11155051   -13685.46587021
  entropy T*S    EENTRO =         0.02241702
  eigenvalues    EBANDS =      -636.77256034
  atomic energy  EATOM  =     11890.63736546
  Solvation  Ediel_sol  =         0.00000000
[...]
     21      -5.1910      2.00000
     22      -5.1033      2.00000
     23      -5.0611      2.00000
     24      -5.0323      2.00000
     25      -4.9277      2.00000
     26      -4.8509      2.00000
     27      -4.7697      2.00000
     28      -4.6701      2.00000
     29      -4.5735      2.00000
     30      -4.5395      2.00000
     31      -4.5069      2.00000
     32      -4.4164      2.00000
     33      -4.3612      2.00000
     34      -4.2635      2.00000
     35      -4.2217      2.00000
     36      -4.1551      2.00000
     37      -4.0831      2.00000
     38      -4.0081      2.00000
     39      -3.8987      2.00000
     40      -3.8338      2.00000
     41      -3.7929      2.00000
     42      -3.7029      2.00000
     43      -3.6303      2.00000
     44      -3.5920      2.00000
     45      -3.5280      2.00000
     46      -3.4724      2.00000
     47      -3.4004      2.00000
     48      -3.3472      2.00000
     49      -3.2148      2.00000
     50      -3.1753      2.00000
     51      -3.1147      2.00000
     52      -3.0733      2.00000
     53      -3.0346      2.00000
     54      -2.9287      2.00000
     55      -2.8941      2.00000
     56      -2.8394      2.00000
     57      -2.6505      2.00000
     58      -2.5191      2.00000
     59      -2.4313      2.00000
     60      -2.3717      2.00000
     61      -2.3074      2.00000
     62      -2.2691      2.00000
     63      -2.1845      2.00000
     64      -2.1354      2.00000
     65      -2.0507      2.00000
     66      -1.9772      2.00000
     67      -1.9436      2.00000
     68      -1.8605      2.00000
     69      -1.7923      2.00000
     70      -1.7119      2.00000
     71      -1.6463      2.00000
     72      -1.5262      2.00000
     73      -1.4763      2.00000
     74      -1.4381      2.00000
     75      -1.3303      2.00000
     76      -1.2463      2.00000
     77      -1.1774      2.00000
     78      -1.0116      2.00000
     79      -0.9955      2.00000
     80      -0.8723      2.00022
     81      -0.8283      2.00069
     82      -0.5340      2.06997
     83      -0.4746      2.04703
     84      -0.4050      1.87189
     85      -0.3418      1.51352
     86      -0.2595      0.84800
     87      -0.2009      0.40107
     88      -0.1017     -0.01521
     89      -0.0664     -0.05998
     90       0.6039     -0.00000
     91       0.8269     -0.00000
     92       1.0691     -0.00000
     93       1.1883     -0.00000
     94       1.9630     -0.00000
     95       2.7142     -0.00000
     96       2.9250     -0.00000
     97       2.9698     -0.00000
     98       3.6785     -0.00000
     99       3.9965     -0.00000
    100       4.5006     -0.00000

 k-point    96 :      -0.4375    0.1250    0.0000
  band No.  band energies     occupation 
      1     -12.4799      2.00000
      2      -7.8974      2.00000
      3      -7.7194      2.00000
      4      -7.2893      2.00000
      5      -6.7785      2.00000
      6      -6.6478      2.00000
      7      -6.3324      2.00000
      8      -6.1502      2.00000
      9      -6.0724      2.00000
     10      -5.9659      2.00000
     11      -5.8720      2.00000
     12      -5.8017      2.00000
     13      -5.7419      2.00000
     14      -5.6585      2.00000
     15      -5.6331      2.00000
     16      -5.6025      2.00000
     17      -5.5409      2.00000
     18      -5.4041      2.00000
     19      -5.3437      2.00000
     20      -5.2605      2.00000
     21      -5.1952      2.00000
     22      -5.1431      2.00000
     23      -5.0810      2.00000
     24      -5.0001      2.00000
     25      -4.9027      2.00000
     26      -4.8171      2.00000
     27      -4.7984      2.00000
     28      -4.7466      2.00000
     29      -4.6171      2.00000
     30      -4.5686      2.00000
     31      -4.5239      2.00000
     32      -4.4825      2.00000
     33      -4.4267      2.00000
     34      -4.3196      2.00000
     35      -4.2448      2.00000
     36      -4.1829      2.00000
     37      -4.0868      2.00000
     38      -4.0519      2.00000
     39      -3.9201      2.00000
     40      -3.8606      2.00000
     41      -3.7852      2.00000
     42      -3.7344      2.00000
     43      -3.6961      2.00000
     44      -3.6232      2.00000
     45      -3.5534      2.00000
     46      -3.5009      2.00000
     47      -3.4526      2.00000
     48      -3.3897      2.00000
     49      -3.2289      2.00000
     50      -3.1490      2.00000
     51      -3.1259      2.00000
     52      -3.0702      2.00000
     53      -3.0231      2.00000
     54      -2.9024      2.00000
     55      -2.8251      2.00000
     56      -2.8034      2.00000
     57      -2.6355      2.00000
     58      -2.4955      2.00000
     59      -2.4012      2.00000
     60      -2.3630      2.00000
     61      -2.3386      2.00000
     62      -2.2644      2.00000
     63      -2.2408      2.00000
     64      -2.1171      2.00000
     65      -2.0781      2.00000
     66      -1.9944      2.00000
     67      -1.9359      2.00000
     68      -1.8027      2.00000
     69      -1.7346      2.00000
     70      -1.6775      2.00000
     71      -1.6243      2.00000
     72      -1.5577      2.00000
     73      -1.4533      2.00000
     74      -1.3980      2.00000
     75      -1.3585      2.00000
     76      -1.2981      2.00000
     77      -1.0659      2.00000
     78      -1.0356      2.00000
     79      -0.9996      2.00000
     80      -0.8142      2.00098
     81      -0.6192      2.03637
     82      -0.5619      2.06190
     83      -0.4741      2.04648
     84      -0.3618      1.64776
     85      -0.3035      1.21754
     86      -0.2484      0.75610
     87      -0.1444      0.10540
     88      -0.0291     -0.07082
     89       0.0659     -0.03561
     90       0.3707     -0.00005
     91       0.7565     -0.00000
     92       1.1505     -0.00000
     93       1.2775     -0.00000
     94       1.8354     -0.00000
     95       2.3554     -0.00000
     96       2.8615     -0.00000
     97       3.3114     -0.00000
     98       3.6760     -0.00000
     99       4.0795     -0.00000
    100       4.3653     -0.00000


--------------------------------------------------------------------------------------------------------


 soft charge-density along one line, spin component           1
         0         1         2         3         4         5         6         7         8         9
 total charge-density along one line
 
 pseudopotential strength for first ion, spin component:           1
 -8.152  -0.004   0.004   0.002  -0.000  -8.295  -0.004   0.004
 -0.004  -8.217   0.012  -0.001  -0.008  -0.004  -8.358   0.012
  0.004   0.012  -8.372  -0.009  -0.002   0.004   0.012  -8.511
  0.002  -0.001  -0.009  -8.216  -0.004   0.002  -0.001  -0.009
 -0.000  -0.008  -0.002  -0.004  -8.152  -0.000  -0.008  -0.002
 -8.295  -0.004   0.004   0.002  -0.000  -8.422  -0.004   0.004
 -0.004  -8.358   0.012  -0.001  -0.008  -0.004  -8.484   0.011
  0.004   0.012  -8.511  -0.009  -0.002   0.004   0.011  -8.634
  0.002  -0.001  -0.009  -8.357  -0.004   0.002  -0.000  -0.009
 -0.000  -0.008  -0.002  -0.004  -8.295  -0.000  -0.008  -0.002
  0.000  -0.004   0.032   0.003  -0.000   0.000  -0.004   0.032
  0.001  -0.006   0.046   0.004  -0.000   0.000  -0.006   0.046
  0.000  -0.007  -0.001   0.000  -0.000   0.000  -0.007  -0.001
  0.000  -0.001   0.004   0.001  -0.000   0.000  -0.001   0.004
 -0.000   0.000   0.000  -0.008   0.000  -0.000   0.000   0.000
  0.000  -0.006  -0.001   0.000  -0.000   0.000  -0.006  -0.001
  0.000  -0.002   0.007   0.001  -0.000   0.000  -0.002   0.007
 -0.001   0.000   0.000  -0.006   0.000  -0.001   0.000   0.000
 total augmentation occupancy for first ion, spin component:           1
  5.965  -0.006   0.085   0.063  -0.029  -3.736  -0.000  -0.057  -0.106   0.022  -0.008   0.029   0.001  -0.025   0.041   0.000
 -0.006   5.451   0.089   0.053   0.061  -0.001  -2.949   0.056  -0.032  -0.115   0.147  -0.010   0.206   0.080  -0.034  -0.026
  0.085   0.089   2.628  -0.090  -0.049  -0.057   0.055  -2.305  -0.018   0.036  -0.812   0.022   0.048  -0.322  -0.031  -0.002
  0.063   0.053  -0.090   5.364   0.004  -0.108  -0.032  -0.019  -2.885  -0.008  -0.109   0.012  -0.033  -0.057   0.255   0.001
 -0.029   0.061  -0.049   0.004   5.961   0.022  -0.113   0.036  -0.007  -3.735   0.006  -0.016   0.049   0.016   0.009  -0.001
 -3.736  -0.001  -0.057  -0.108   0.022   3.433   0.007   0.037   0.140  -0.016  -0.002  -0.020  -0.001   0.023  -0.039  -0.000
 -0.000  -2.949   0.055  -0.032  -0.113   0.007   2.445  -0.176   0.014   0.155  -0.146   0.015  -0.162  -0.085   0.030   0.011
 -0.057   0.056  -2.305  -0.019   0.036   0.037  -0.176   3.609   0.109  -0.026   0.824  -0.029  -0.049   0.447   0.033   0.002
 -0.106  -0.032  -0.018  -2.885  -0.007   0.140   0.014   0.109   2.399   0.011   0.108  -0.014   0.030   0.060  -0.207  -0.001
  0.022  -0.115   0.036  -0.008  -3.735  -0.016   0.155  -0.026   0.011   3.435  -0.001   0.011  -0.044  -0.016  -0.008   0.001
 -0.008   0.147  -0.812  -0.109   0.006  -0.002  -0.146   0.824   0.108  -0.001   2.630  -0.546  -0.013   0.116   0.008   0.000
  0.029  -0.010   0.022   0.012  -0.016  -0.020   0.015  -0.029  -0.014   0.011  -0.546   0.152   0.004   0.021  -0.003  -0.000
  0.001   0.206   0.048  -0.033   0.049  -0.001  -0.162  -0.049   0.030  -0.044  -0.013   0.004   0.244  -0.009  -0.002  -0.007
 -0.025   0.080  -0.322  -0.057   0.016   0.023  -0.085   0.447   0.060  -0.016   0.116   0.021  -0.009   0.345   0.006   0.000
  0.041  -0.034  -0.031   0.255   0.009  -0.039   0.030   0.033  -0.207  -0.008   0.008  -0.003  -0.002   0.006   0.247   0.000
  0.000  -0.026  -0.002   0.001  -0.001  -0.000   0.011   0.002  -0.001   0.001   0.000  -0.000  -0.007   0.000   0.000   0.000
  0.001  -0.003   0.004   0.002  -0.001  -0.001   0.002  -0.011  -0.002   0.001  -0.003  -0.000   0.000  -0.008  -0.000   0.000
 -0.001   0.001   0.002  -0.028  -0.000   0.001  -0.001  -0.001   0.012   0.000  -0.000   0.000   0.000  -0.000  -0.007  -0.000


------------------------ aborting loop because EDIFF is reached ----------------------------------------



 DIPCOR: dipole corrections for dipol
 direction  3 min pos    19,
 dipolmoment           0.000000      0.000000     -0.251312 electrons x Angstroem
 Tr[quadrupol]      -937.242417

 energy correction for charged system         0.000000 eV
 dipol+quadrupol energy correction            0.006934 eV
 added-field ion interaction          0.000000 eV  (added to PSCEN)

 
  *************** adding dipol energy to TOTEN NOW **************** 
    CHARGE:  cpu time    0.7215: real time    0.7215
    FORLOC:  cpu time    0.0071: real time    0.0071
    FORNL :  cpu time    3.1741: real time    3.1741
    STRESS:  cpu time    9.5730: real time    9.5731
    FORCOR:  cpu time    0.0284: real time    0.0284
    FORHAR:  cpu time    0.0119: real time    0.0119
    MIXING:  cpu time    0.0040: real time    0.0040
    OFIELD:  cpu time    0.0000: real time    0.0000

  FORCE on cell =-STRESS in cart. coord.  units (eV):
  Direction    XX          YY          ZZ          XY          YZ          ZX
  --------------------------------------------------------------------------------------
  Alpha Z   324.87462   324.87462   324.87462
  Ewald  109718.24289109732.77004************    24.28822     6.42202    -4.76757
  Hartree112222.42881112240.01166************    18.92094     1.86723    -1.53676
  E(xc)    -736.98363  -737.01713  -740.78966     0.03048     0.04266    -0.02475
  Local  ************************227090.92560   -43.50879    -6.79921     5.52659
  n-local    48.43161    48.24775    40.41396     0.35393     0.55097    -0.46038
  augment   836.83069   837.59025   854.52130    -0.06245    -0.68731     0.49540
  Kinetic  2385.63475  2387.68414  2436.96353     0.31022    -1.21544     1.03625
  Fock        0.00000     0.00000     0.00000     0.00000     0.00000     0.00000
  -------------------------------------------------------------------------------------
  Total     -11.43959   -11.21529    -2.75318     0.33256     0.18091     0.26879
  in kB     -22.23958   -21.80352    -5.35243     0.64652     0.35170     0.52255
  external pressure =      -16.47 kB  Pullay stress =        0.00 kB


 VOLUME and BASIS-vectors are now :
 -----------------------------------------------------------------------------
  energy-cutoff  :      350.00
  volume of cell :      824.13
      direct lattice vectors                 reciprocal lattice vectors
     5.557859300  0.000000000  0.000000000     0.179925390 -0.103879972  0.000000000
     2.778929650  4.813247345  0.000000000     0.000000000  0.207759944  0.000000000
     0.000000000  0.000000000 30.806959674     0.000000000  0.000000000  0.032460198

  length of vectors
     5.557859300  5.557859300 30.806959674     0.207759944  0.207759944  0.032460198


 FORCES acting on ions
    electron-ion (+dipol)            ewald-force                    non-local-force                 convergence-correction
 -----------------------------------------------------------------------------------------------
   -.997E-01 0.602E+00 -.280E+04   0.160E+00 -.741E+00 0.281E+04   -.478E-01 0.169E+00 -.549E+01   0.570E-04 -.867E-05 -.297E-02
   0.422E+00 -.431E+00 -.134E+04   -.449E+00 0.426E+00 0.134E+04   0.312E-01 0.295E-01 -.121E+01   0.625E-04 -.158E-04 0.477E-03
   -.261E+01 0.246E+01 -.369E+03   0.278E+01 -.265E+01 0.372E+03   -.130E+00 0.168E+00 -.294E+01   -.324E-04 0.170E-04 0.126E-03
   -.453E+01 -.437E+02 -.346E+03   0.521E+01 0.488E+02 0.348E+03   -.692E+00 -.514E+01 -.183E+01   0.239E-04 -.229E-03 0.109E-03
   0.431E+02 0.149E+02 -.345E+03   -.480E+02 -.167E+02 0.346E+03   0.492E+01 0.190E+01 -.156E+01   0.263E-03 0.339E-04 0.140E-03
   -.360E+02 0.289E+02 -.345E+03   0.401E+02 -.322E+02 0.347E+03   -.402E+01 0.328E+01 -.176E+01   -.231E-03 0.180E-03 0.149E-03
   -.249E+01 0.174E+01 0.265E+04   0.243E+01 -.168E+01 -.265E+04   0.352E-01 -.481E-01 -.109E+00   0.748E-04 -.203E-03 0.164E-03
   0.305E+01 -.169E+01 -.254E+04   -.280E+01 0.157E+01 0.254E+04   -.255E+00 0.152E+00 0.132E+01   -.191E-04 0.224E-04 -.375E-02
   0.479E+01 -.260E+01 -.254E+04   -.455E+01 0.235E+01 0.254E+04   -.263E+00 0.235E+00 0.134E+01   -.988E-05 -.944E-05 -.373E-02
   -.700E+01 -.425E+00 -.259E+04   0.665E+01 0.475E+00 0.259E+04   0.367E+00 -.670E-01 -.522E+01   0.135E-03 -.101E-03 -.123E-02
   0.258E+01 -.188E+01 -.719E+03   -.294E+01 0.206E+01 0.720E+03   0.386E+00 -.207E+00 -.103E+00   -.343E-03 0.606E-03 -.105E-01
   0.230E+01 -.135E+01 0.294E+04   -.219E+01 0.131E+01 -.294E+04   -.843E-01 0.876E-01 -.731E+00   -.129E-03 0.383E-03 0.126E-03
   0.434E+01 0.600E+01 -.709E+03   -.416E+01 -.624E+01 0.708E+03   -.244E+00 0.234E+00 0.346E-01   0.739E-03 -.329E-03 -.101E-01
   0.820E+00 -.580E+01 0.115E+04   -.820E+00 0.601E+01 -.115E+04   -.752E-02 -.445E-01 0.863E-01   0.156E-03 -.459E-03 -.444E-02
   -.102E+01 -.791E+00 0.113E+04   0.959E+00 0.850E+00 -.113E+04   0.555E-01 -.619E-01 -.698E+00   -.163E-03 -.188E-04 -.480E-02
   0.425E+01 0.316E+01 0.116E+04   -.442E+01 -.328E+01 -.116E+04   0.135E-01 0.318E-01 0.829E-01   0.378E-03 0.164E-03 -.432E-02
   -.435E+01 0.392E+01 0.113E+04   0.445E+01 -.397E+01 -.113E+04   0.351E-01 -.265E-01 -.649E+00   -.359E-03 0.317E-03 -.452E-02
   -.302E+01 0.182E+01 0.295E+04   0.286E+01 -.167E+01 -.295E+04   0.193E+00 -.172E+00 -.686E+00   0.531E-03 -.128E-03 0.376E-03
   0.269E+01 -.998E+00 0.294E+04   -.257E+01 0.990E+00 -.294E+04   -.146E+00 -.395E-01 -.589E+00   -.539E-03 -.278E-05 0.339E-03
   -.434E+01 0.282E+01 -.687E+03   0.417E+01 -.273E+01 0.687E+03   0.223E+00 -.131E+00 0.100E+00   -.715E-03 -.111E-04 -.102E-01
   -.290E+01 -.713E+01 -.711E+03   0.319E+01 0.702E+01 0.711E+03   -.325E+00 0.160E+00 -.138E+00   0.293E-03 -.263E-03 -.957E-02
 -----------------------------------------------------------------------------------------------
   -.539E-01 -.518E+00 0.208E+02   -.440E-13 0.275E-13 0.000E+00   0.476E-01 0.506E+00 -.208E+02   0.171E-03 -.561E-04 -.681E-01
 
 
 POSITION                                       TOTAL-FORCE (eV/Angst)
 -----------------------------------------------------------------------------------
      1.42741      2.32075     19.12121         0.013102      0.030864      0.238730
      2.73838      4.71443     21.36095         0.003866      0.024894     -0.058157
      1.48683      2.23696     20.67118         0.039546     -0.021674      0.313094
      5.65972      0.92613     21.72916        -0.010864     -0.017626      0.036681
      7.31573      4.33143     21.67648         0.002361      0.018900      0.026933
      3.54411      4.05673     21.71956         0.015951      0.000214      0.009580
      2.76621      0.00627     12.08909        -0.030532      0.010988      1.158756
      4.21079      2.32214     19.01183        -0.004498      0.031920     -0.148382
      5.59784      4.72775     19.01265        -0.018483     -0.017018     -0.155810
      2.80697      4.73050     19.28880         0.008448     -0.016586     -0.039152
      4.16704      3.96935     16.76089         0.022051     -0.019503      0.137846
      2.78078      4.81228     12.09568         0.032855      0.042985     -0.116313
      5.57654      1.54560     16.74898        -0.054241     -0.005459     -0.241727
      5.55799      3.19031     14.41142        -0.006812      0.161099     -0.316278
      2.77803      3.19083     14.45164        -0.007069     -0.002587      0.044084
      4.16959      0.78306     14.40271        -0.162170     -0.093984     -0.342796
      1.38806      0.78263     14.44984         0.129575     -0.073941     -0.279747
      4.15584      2.41410     12.08889         0.037125     -0.022891     -0.110991
      1.39058      2.40625     12.09458        -0.031022     -0.046350     -0.108179
      2.79155      1.55471     16.72766         0.056136     -0.032933     -0.005080
      6.97079      3.96026     16.75286        -0.035325      0.048688     -0.043091
 -----------------------------------------------------------------------------------
    total drift:                               -0.006139     -0.011872      0.010234


--------------------------------------------------------------------------------------------------------



  FREE ENERGIE OF THE ION-ELECTRON SYSTEM (eV)
  ---------------------------------------------------
  free  energy   TOTEN  =      -115.04421139 eV

  energy  without entropy=     -115.01126888  energy(sigma->0) =     -115.03323056
 


--------------------------------------------------------------------------------------------------------


    POTLOK:  cpu time    0.0262: real time    0.0262


--------------------------------------------------------------------------------------------------------


     LOOP+:  cpu time  612.7542: real time  612.8508
    4ORBIT:  cpu time    0.0000: real time    0.0000

 total amount of memory used by VASP MPI-rank0   164312. kBytes
=======================================================================

   base      :      30000. kBytes
   nonlr-proj:       2359. kBytes
   fftplans  :       2967. kBytes
   grid      :       6321. kBytes
   one-center:         93. kBytes
   wavefun   :     122572. kBytes
 
  
  
 General timing and accounting informations for this job:
 ========================================================
  
                  Total CPU time used (sec):      620.520
                            User time (sec):      618.448
                          System time (sec):        2.072
                         Elapsed time (sec):      620.804
  
                   Maximum memory used (kb):      206864.
                   Average memory used (kb):           0.
  
                          Minor page faults:        84867
                          Major page faults:            0
                 Voluntary context switches:          607
