       N       E                     dE             d eps       ncg     rms          rms(c)
DAV:   1     0.109593839621E+04    0.10959E+04   -0.75162E+04 12584   0.106E+03
DAV:   2    -0.409969028549E+02   -0.11369E+04   -0.10668E+04 14288   0.268E+02
DAV:   3    -0.102553518544E+03   -0.61557E+02   -0.54849E+02 14440   0.569E+01
DAV:   4    -0.104514058015E+03   -0.19605E+01   -0.19312E+01 14592   0.106E+01
DAV:   5    -0.104576778196E+03   -0.62720E-01   -0.62670E-01 15424   0.190E+00    0.287E+01
DAV:   6    -0.107934830177E+03   -0.33581E+01   -0.34654E+01 13152   0.270E+01    0.295E+01
DAV:   7    -0.133078984598E+03   -0.25144E+02   -0.62221E+01 16752   0.740E+01    0.394E+01
DAV:   8    -0.129623178941E+03    0.34558E+01   -0.61722E+01 15800   0.446E+01    0.408E+01
DAV:   9    -0.106865476684E+03    0.22758E+02   -0.37380E+01 14352   0.305E+01    0.266E+01
DAV:  10    -0.104500337477E+03    0.23651E+01   -0.43488E+01 13216   0.211E+01    0.186E+01
DAV:  11    -0.100552303005E+03    0.39480E+01   -0.80793E+00 13272   0.194E+01    0.124E+01
DAV:  12    -0.100177419042E+03    0.37488E+00   -0.10832E+01 13168   0.133E+01    0.790E+00
DAV:  13    -0.995318926202E+02    0.64553E+00   -0.20048E+00 13176   0.801E+00    0.480E+00
DAV:  14    -0.995428025628E+02   -0.10910E-01   -0.15559E+00 13280   0.611E+00    0.498E+00
DAV:  15    -0.995183224686E+02    0.24480E-01   -0.41285E-01 13032   0.351E+00    0.474E+00
DAV:  16    -0.994190093311E+02    0.99313E-01   -0.57723E-01 13152   0.346E+00    0.247E+00
DAV:  17    -0.994140737144E+02    0.49356E-02   -0.21228E-01 13160   0.277E+00    0.254E+00
DAV:  18    -0.993602834932E+02    0.53790E-01   -0.13737E-01 13240   0.197E+00    0.801E-01
DAV:  19    -0.993572638494E+02    0.30196E-02   -0.17494E-02 13296   0.667E-01    0.498E-01
DAV:  20    -0.993549230503E+02    0.23408E-02   -0.44333E-03 13528   0.386E-01    0.272E-01
DAV:  21    -0.993544003464E+02    0.52270E-03   -0.17957E-03 13600   0.234E-01    0.229E-01
DAV:  22    -0.993537588633E+02    0.64148E-03   -0.11289E-03 13528   0.189E-01    0.182E-01
DAV:  23    -0.993534176471E+02    0.34122E-03   -0.10503E-03 13560   0.174E-01    0.164E-01
DAV:  24    -0.993532570426E+02    0.16060E-03   -0.28628E-04 13456   0.900E-02    0.112E-01
DAV:  25    -0.993531379332E+02    0.11911E-03   -0.38968E-04 13200   0.838E-02    0.469E-02
DAV:  26    -0.993532389352E+02   -0.10100E-03   -0.10895E-04 13296   0.553E-02    0.451E-02
DAV:  27    -0.993535277445E+02   -0.28881E-03   -0.87232E-05 11320   0.432E-02    0.424E-02
DAV:  28    -0.993538436177E+02   -0.31587E-03   -0.17338E-04 10448   0.569E-02    0.614E-02
DAV:  29    -0.993541384767E+02   -0.29486E-03   -0.44835E-05 10128   0.312E-02    0.709E-02
DAV:  30    -0.993543620109E+02   -0.22353E-03   -0.60210E-05  9224   0.316E-02    0.351E-02
DAV:  31    -0.993544366197E+02   -0.74609E-04   -0.16380E-05  7984   0.165E-02    0.139E-02
DAV:  32    -0.993545107658E+02   -0.74146E-04   -0.48506E-06  7688   0.102E-02    0.887E-03
DAV:  33    -0.993545969774E+02   -0.86212E-04   -0.45740E-06  7768   0.845E-03    0.770E-03
DAV:  34    -0.993546617314E+02   -0.64754E-04   -0.27448E-06  7720   0.590E-03    0.665E-03
DAV:  35    -0.993546895703E+02   -0.27839E-04   -0.14275E-06  7648   0.424E-03    0.455E-03
DAV:  36    -0.993547064782E+02   -0.16908E-04   -0.92708E-07  7488   0.310E-03    0.335E-03
DAV:  37    -0.993547178957E+02   -0.11418E-04   -0.86605E-07  7648   0.254E-03    0.384E-03
DAV:  38    -0.993547220174E+02   -0.41217E-05   -0.44973E-07  7360   0.224E-03
   1 F= -.99354722E+02 E0= -.99249914E+02  d E =-.314424E+00
