 vasp.5.4.4.18Apr17-6-g9f103f2a35 (build Apr 28 2017 10:53:45) complex          
  
 executed on             LinuxIFC date 2019.05.31  17:26:31
 running on   28 total cores
 distrk:  each k-point on   28 cores,    1 groups
 distr:  one band on NCORES_PER_BAND=   7 cores,    4 groups


--------------------------------------------------------------------------------------------------------


 INCAR:
 POTCAR:    PAW_PBE Ag 02Apr2005                  
 POTCAR:    PAW_PBE Pd 04Jan2005                  
 POTCAR:    PAW_PBE Rh 04Feb2005                  
 POTCAR:    PAW_PBE Ag 02Apr2005                  
   VRHFIN =Ag : s1 d10                                                          
   LEXCH  = PE                                                                  
   EATOM  =  1037.2675 eV,   76.2370 Ry                                         
                                                                                
   TITEL  = PAW_PBE Ag 02Apr2005                                                
   LULTRA =        F    use ultrasoft PP ?                                      
   IUNSCR =        1    unscreen: 0-lin 1-nonlin 2-no                           
   RPACOR =    2.000    partial core radius                                     
   POMASS =  107.868; ZVAL   =   11.000    mass and valenz                      
   RCORE  =    2.500    outmost cutoff radius                                   
   RWIGS  =    2.840; RWIGS  =    1.503    wigner-seitz radius (au A)           
   ENMAX  =  249.844; ENMIN  =  187.383 eV                                      
   ICORE  =        3    local potential                                         
   LCOR   =        T    correct aug charges                                     
   LPAW   =        T    paw PP                                                  
   EAUG   =  412.496                                                            
   DEXC   =    0.000                                                            
   RMAX   =    2.560    core radius for proj-oper                               
   RAUG   =    1.300    factor for augmentation sphere                          
   RDEP   =    2.576    radius for radial grids                                 
   RDEPT  =    2.072    core radius for aug-charge                              
                                                                                
   Atomic configuration                                                         
   12 entries                                                                   
     n  l   j            E        occ.                                          
     1  0  0.50    -25324.9161   2.0000                                         
     2  0  0.50     -3728.5341   2.0000                                         
     2  1  1.50     -3344.0404   6.0000                                         
     3  0  0.50      -683.5581   2.0000                                         
     3  1  1.50      -557.3225   6.0000                                         
     3  2  2.50      -358.3853  10.0000                                         
     4  0  0.50       -95.0341   2.0000                                         
     4  1  1.50       -58.5511   6.0000                                         
     4  2  2.50        -7.4440  10.0000                                         
     5  0  0.50        -4.4045   1.0000                                         
     5  1  0.50        -1.3606   0.0000                                         
     4  3  2.50        -1.3606   0.0000                                         
   Description                                                                  
     l       E           TYP  RCUT    TYP  RCUT                                 
     2     -7.4439781     23  2.400                                             
     2     -8.8045607     23  2.400                                             
     0     -4.4044681     23  2.400                                             
     0      1.9520038     23  2.400                                             
     1     -1.3605826     23  2.500                                             
     1     27.2116520     23  2.500                                             
     3     -4.0817478     23  2.400                                             
  local pseudopotential read in
  partial core-charges read in
  partial kinetic energy density read in
  atomic valenz-charges read in
  non local Contribution for L=           2  read in
    real space projection operators read in
  non local Contribution for L=           2  read in
    real space projection operators read in
  non local Contribution for L=           0  read in
    real space projection operators read in
  non local Contribution for L=           0  read in
    real space projection operators read in
  non local Contribution for L=           1  read in
    real space projection operators read in
  non local Contribution for L=           1  read in
    real space projection operators read in
    PAW grid and wavefunctions read in
 
   number of l-projection  operators is LMAX  =           6
   number of lm-projection operators is LMMAX =          18
 
 POTCAR:    PAW_PBE Pd 04Jan2005                  
   VRHFIN =Pd : s1 d9                                                           
   LEXCH  = PE                                                                  
   EATOM  =   809.7530 eV,   59.5152 Ry                                         
                                                                                
   TITEL  = PAW_PBE Pd 04Jan2005                                                
   LULTRA =        F    use ultrasoft PP ?                                      
   IUNSCR =        1    unscreen: 0-lin 1-nonlin 2-no                           
   RPACOR =    2.000    partial core radius                                     
   POMASS =  106.420; ZVAL   =   10.000    mass and valenz                      
   RCORE  =    2.600    outmost cutoff radius                                   
   RWIGS  =    2.710; RWIGS  =    1.434    wigner-seitz radius (au A)           
   ENMAX  =  250.925; ENMIN  =  188.194 eV                                      
   ICORE  =        3    local potential                                         
   LCOR   =        T    correct aug charges                                     
   LPAW   =        T    paw PP                                                  
   EAUG   =  416.230                                                            
   DEXC   =    0.000                                                            
   RMAX   =    2.653    core radius for proj-oper                               
   RAUG   =    1.300    factor for augmentation sphere                          
   RDEP   =    2.734    radius for radial grids                                 
   RDEPT  =    2.103    core radius for aug-charge                              
                                                                                
   Atomic configuration                                                         
   12 entries                                                                   
     n  l   j            E        occ.                                          
     1  0  0.50    -24164.6631   2.0000                                         
     2  0  0.50     -3530.9218   2.0000                                         
     2  1  1.50     -3165.6822   6.0000                                         
     3  0  0.50      -639.4577   2.0000                                         
     3  1  1.50      -519.4532   6.0000                                         
     3  2  2.50      -328.9757  10.0000                                         
     4  0  0.50       -88.7014   2.0000                                         
     4  1  1.50       -54.4540   6.0000                                         
     4  2  2.50        -6.6878   9.0000                                         
     5  0  0.50        -4.3543   1.0000                                         
     5  1  0.50        -1.3606   0.0000                                         
     4  3  2.50        -1.3606   0.0000                                         
   Description                                                                  
     l       E           TYP  RCUT    TYP  RCUT                                 
     2     -6.6878251     23  2.400                                             
     2     -8.0484077     23  2.400                                             
     0     -4.3542939     23  2.400                                             
     0      4.3406793     23  2.400                                             
     1     -4.0817478     23  2.600                                             
     1     15.8380318     23  2.600                                             
     3     -4.0817478     23  2.400                                             
  local pseudopotential read in
  partial core-charges read in
  partial kinetic energy density read in
  atomic valenz-charges read in
  non local Contribution for L=           2  read in
    real space projection operators read in
  non local Contribution for L=           2  read in
    real space projection operators read in
  non local Contribution for L=           0  read in
    real space projection operators read in
  non local Contribution for L=           0  read in
    real space projection operators read in
  non local Contribution for L=           1  read in
    real space projection operators read in
  non local Contribution for L=           1  read in
    real space projection operators read in
    PAW grid and wavefunctions read in
 
   number of l-projection  operators is LMAX  =           6
   number of lm-projection operators is LMMAX =          18
 
 POTCAR:    PAW_PBE Rh 04Feb2005                  
   VRHFIN =Rh: s1 d8                                                            
   LEXCH  = PE                                                                  
   EATOM  =   616.4198 eV,   45.3056 Ry                                         
                                                                                
   TITEL  = PAW_PBE Rh 04Feb2005                                                
   LULTRA =        F    use ultrasoft PP ?                                      
   IUNSCR =        1    unscreen: 0-lin 1-nonlin 2-no                           
   RPACOR =    2.170    partial core radius                                     
   POMASS =  102.906; ZVAL   =    9.000    mass and valenz                      
   RCORE  =    2.700    outmost cutoff radius                                   
   RWIGS  =    2.650; RWIGS  =    1.402    wigner-seitz radius (au A)           
   ENMAX  =  228.996; ENMIN  =  171.747 eV                                      
   ICORE  =        3    local potential                                         
   LCOR   =        T    correct aug charges                                     
   LPAW   =        T    paw PP                                                  
   EAUG   =  374.513                                                            
   DEXC   =    0.000                                                            
   RMAX   =    2.752    core radius for proj-oper                               
   RAUG   =    1.300    factor for augmentation sphere                          
   RDEP   =    2.703    radius for radial grids                                 
   RDEPT  =    2.174    core radius for aug-charge                              
                                                                                
   Atomic configuration                                                         
   12 entries                                                                   
     n  l   j            E        occ.                                          
     1  0  0.50    -23034.1986   2.0000                                         
     2  0  0.50     -3339.2387   2.0000                                         
     2  1  1.50     -2992.3290   6.0000                                         
     3  0  0.50      -596.7249   2.0000                                         
     3  1  1.50      -482.7183   6.0000                                         
     3  2  2.50      -300.5356  10.0000                                         
     4  0  0.50       -82.4809   2.0000                                         
     4  1  0.50       -50.4082   6.0000                                         
     4  2  2.50        -5.9408   8.0000                                         
     5  0  0.50        -4.2999   1.0000                                         
     5  1  1.50        -1.3606   0.0000                                         
     4  3  2.50        -1.3606   0.0000                                         
   Description                                                                  
     l       E           TYP  RCUT    TYP  RCUT                                 
     2     -5.9407964     23  2.500                                             
     2     -7.3013790     23  2.500                                             
     0     -4.2998518     23  2.400                                             
     0      6.0533315     23  2.400                                             
     1     -4.0817478     23  2.700                                             
     1     27.2116520     23  2.700                                             
     3     -4.0817478     23  2.500                                             
  local pseudopotential read in
  partial core-charges read in
  partial kinetic energy density read in
  atomic valenz-charges read in
  non local Contribution for L=           2  read in
    real space projection operators read in
  non local Contribution for L=           2  read in
    real space projection operators read in
  non local Contribution for L=           0  read in
    real space projection operators read in
  non local Contribution for L=           0  read in
    real space projection operators read in
  non local Contribution for L=           1  read in
    real space projection operators read in
  non local Contribution for L=           1  read in
    real space projection operators read in
    PAW grid and wavefunctions read in
 
   number of l-projection  operators is LMAX  =           6
   number of lm-projection operators is LMMAX =          18
 
 Optimization of the real space projectors (new method)

 maximal supplied QI-value         = 15.12
 optimisation between [QCUT,QGAM] = [  9.52, 19.05] = [ 25.40,101.61] Ry 
 Optimized for a Real-space Cutoff    1.43 Angstroem

   l    n(q)    QCUT    max X(q) W(low)/X(q) W(high)/X(q)  e(spline) 
   2      7     9.524    53.897    0.36E-03    0.74E-03    0.67E-07
   2      7     9.524    52.416    0.37E-03    0.76E-03    0.67E-07
   0      8     9.524   122.045    0.11E-03    0.28E-03    0.55E-07
   0      8     9.524    73.629    0.11E-03    0.27E-03    0.53E-07
   1      8     9.524    15.255    0.22E-03    0.34E-03    0.12E-06
   1      8     9.524     9.562    0.19E-03    0.28E-03    0.10E-06
 Optimization of the real space projectors (new method)

 maximal supplied QI-value         = 14.36
 optimisation between [QCUT,QGAM] = [  9.48, 19.10] = [ 25.16,102.17] Ry 
 Optimized for a Real-space Cutoff    1.52 Angstroem

   l    n(q)    QCUT    max X(q) W(low)/X(q) W(high)/X(q)  e(spline) 
   2      8     9.479    59.108    0.48E-04    0.31E-03    0.96E-07
   2      8     9.479    58.101    0.46E-04    0.32E-03    0.99E-07
   0      9     9.479   102.235    0.56E-04    0.11E-03    0.61E-07
   0      9     9.479    58.388    0.50E-04    0.10E-03    0.58E-07
   1      8     9.479    22.191    0.26E-03    0.25E-04    0.13E-06
   1      8     9.479    15.590    0.22E-03    0.23E-04    0.11E-06
 Optimization of the real space projectors (new method)

 maximal supplied QI-value         = 13.98
 optimisation between [QCUT,QGAM] = [  9.51, 19.16] = [ 25.32,102.78] Ry 
 Optimized for a Real-space Cutoff    1.57 Angstroem

   l    n(q)    QCUT    max X(q) W(low)/X(q) W(high)/X(q)  e(spline) 
   2      8     9.509    59.645    0.36E-03    0.26E-04    0.85E-07
   2      8     9.509    58.460    0.36E-03    0.26E-04    0.89E-07
   0      9     9.509    97.683    0.11E-03    0.15E-03    0.88E-07
   0      9     9.509    53.223    0.10E-03    0.14E-03    0.82E-07
   1      8     9.509    13.596    0.23E-03    0.93E-04    0.99E-07
   1      8     9.509     7.885    0.17E-03    0.72E-04    0.80E-07
  PAW_PBE Ag 02Apr2005                  :
 energy of atom  1       EATOM=-1037.2675
 kinetic energy error for atom=    0.0272 (will be added to EATOM!!)
  PAW_PBE Pd 04Jan2005                  :
 energy of atom  2       EATOM= -809.7530
 kinetic energy error for atom=    0.0269 (will be added to EATOM!!)
  PAW_PBE Rh 04Feb2005                  :
 energy of atom  3       EATOM= -616.4198
 kinetic energy error for atom=    0.0105 (will be added to EATOM!!)
 
 
 POSCAR: Ag Pd Rh                                
  positions in cartesian coordinates
  No initial velocities read in
 exchange correlation table for  LEXCH =        8
   RHO(1)=    0.500       N(1)  =     2000
   RHO(2)=  100.500       N(2)  =     4000
 


--------------------------------------------------------------------------------------------------------


 ion  position               nearest neighbor table
   1  0.833  0.833  0.578-  10 2.78  11 2.78  12 2.78  13 2.79  15 2.79  13 2.79  14 2.79  14 2.79
                            15 2.79  16 2.79  17 2.79  18 2.79
   2  0.833  0.333  0.344-  20 2.79   8 2.79   6 2.79   4 2.79   3 2.79   4 2.79   5 2.79   3 2.79
                             5 2.79
   3  0.333  0.333  0.344-   8 2.79   7 2.79  20 2.79   5 2.79   2 2.79   4 2.79   5 2.79   2 2.79
                             4 2.79
   4  0.833  0.833  0.344-   6 2.79   7 2.79  20 2.79   5 2.79   2 2.79   2 2.79   3 2.79   3 2.79
                             5 2.79
   5  0.333  0.833  0.344-   7 2.79   6 2.79   8 2.79   4 2.79   3 2.79   2 2.79   3 2.79   2 2.79
                             4 2.79
   6  0.000  0.000  0.422-   9 2.79  11 2.79  10 2.79   4 2.79   5 2.79   2 2.79   7 2.79  20 2.79
                             8 2.79  20 2.79   7 2.79   8 2.79
   7  0.500  0.000  0.422-  10 2.79  12 2.79   9 2.79   5 2.79   3 2.79   4 2.79   8 2.79   6 2.79
                             8 2.79  20 2.79   6 2.79  20 2.79
   8  0.500  0.500  0.422-  12 2.79  10 2.79  11 2.79   3 2.79   5 2.79   2 2.79   7 2.79  20 2.79
                             6 2.79   7 2.79   6 2.79  20 2.79
   9  0.167  0.167  0.500-  13 2.78  15 2.78  14 2.78   6 2.79  20 2.79   7 2.79  10 2.79  11 2.79
                            11 2.79  12 2.79  10 2.79  12 2.79
  10  0.667  0.167  0.500-   1 2.78  14 2.78  13 2.78   7 2.79   8 2.79   6 2.79   9 2.79  12 2.79
                            11 2.79  12 2.79   9 2.79  11 2.79
  11  0.167  0.667  0.500-   1 2.78  14 2.78  15 2.78  20 2.79   6 2.79   8 2.79  12 2.79   9 2.79
                             9 2.79  10 2.79  10 2.79  12 2.79
  12  0.667  0.667  0.500-  13 2.78  15 2.78   1 2.78   8 2.79   7 2.79  20 2.79  11 2.79  10 2.79
                             9 2.79  10 2.79   9 2.79  11 2.79
  13  0.833  0.333  0.578-   9 2.78  12 2.78  10 2.78   1 2.79  14 2.79   1 2.79  15 2.79  14 2.79
                            15 2.79  18 2.79  16 2.79  19 2.79
  14  0.333  0.333  0.578-  10 2.78  11 2.78   9 2.78  13 2.79  15 2.79   1 2.79  15 2.79   1 2.79
                            13 2.79  19 2.79  18 2.79  17 2.79
  15  0.333  0.833  0.578-   9 2.78  12 2.78  11 2.78   1 2.79  14 2.79  13 2.79  14 2.79   1 2.79
                            13 2.79  17 2.79  16 2.79  19 2.79
  16  0.000  0.000  0.656-  17 2.79  18 2.79  18 2.79  19 2.79  17 2.79  19 2.79   1 2.79  13 2.79
                            15 2.79
  17  0.500  0.000  0.656-  16 2.79  19 2.79  18 2.79  19 2.79  16 2.79  18 2.79  15 2.79  14 2.79
                             1 2.79
  18  0.000  0.500  0.656-  16 2.79  19 2.79  16 2.79  17 2.79  17 2.79  19 2.79  13 2.79   1 2.79
                            14 2.79
  19  0.500  0.500  0.656-  17 2.79  18 2.79  16 2.79  17 2.79  16 2.79  18 2.79  14 2.79  13 2.79
                            15 2.79
  20  0.000  0.500  0.422-  11 2.79   9 2.79  12 2.79   2 2.79   4 2.79   3 2.79   8 2.79   6 2.79
                             6 2.79   7 2.79   7 2.79   8 2.79
 
  LATTYP: Found a hexagonal cell.
 ALAT       =     5.5720014357
 C/A-ratio  =     5.2223676856
  
  Lattice vectors:
  
 A1 = (   2.7860007179,  -4.8254947933,   0.0000000000)
 A2 = (  -5.5720014357,   0.0000000000,   0.0000000000)
 A3 = (   0.0000000000,   0.0000000000, -29.0990402424)


Analysis of symmetry for initial positions (statically):
=====================================================================
 Subroutine PRICEL returns:
 Original cell was already a primitive cell.
 

 Routine SETGRP: Setting up the symmetry group for a 
 hexagonal supercell.


 Subroutine GETGRP returns: Found  2 space group operations
 (whereof  1 operations were pure point group operations)
 out of a pool of 24 trial point group operations.


The static configuration has the point symmetry C_1 .
 The point group associated with its full space group is C_1h.


Analysis of symmetry for dynamics (positions and initial velocities):
=====================================================================
 Subroutine PRICEL returns:
 Original cell was already a primitive cell.
 

 Routine SETGRP: Setting up the symmetry group for a 
 hexagonal supercell.


 Subroutine GETGRP returns: Found  2 space group operations
 (whereof  1 operations were pure point group operations)
 out of a pool of 24 trial point group operations.


The dynamic configuration has the point symmetry C_1 .
 The point group associated with its full space group is C_1h.


Analysis of constrained symmetry for selective dynamics:
=====================================================================
 Subroutine PRICEL returns:
 Original cell was already a primitive cell.
 

 Routine SETGRP: Setting up the symmetry group for a 
 hexagonal supercell.


 Subroutine GETGRP returns: Found  2 space group operations
 (whereof  1 operations were pure point group operations)
 out of a pool of 24 trial point group operations.


The constrained configuration has the point symmetry C_1 .
 The point group associated with its full space group is C_1h.


 Subroutine INISYM returns: Found  2 space group operations
 (whereof  1 operations are pure point group operations),
 and found     1 'primitive' translations

 
 
 KPOINTS: 0_3_Rh12_Ag4                            

Automatic generation of k-mesh.
Space group operators:
 irot       det(A)        alpha          n_x          n_y          n_z        tau_x        tau_y        tau_z
    1     1.000000     0.000000     1.000000     0.000000     0.000000     0.000000     0.000000     0.000000
    2    -1.000000   180.000000     1.000000     0.000000     0.000000    -0.500000     0.000000     0.000000
 
 Subroutine IBZKPT returns following result:
 ===========================================
 
 Found     52 irreducible k-points:
 
 Following reciprocal coordinates:
            Coordinates               Weight
  0.062500  0.062500  0.000000     32.000000
  0.000000  0.062500  0.000000     16.000000
  0.187500  0.062500  0.000000     32.000000
  0.125000  0.187500  0.000000     32.000000
 -0.062500  0.125000  0.000000     32.000000
  0.312500  0.062500  0.000000     32.000000
  0.250000  0.312500  0.000000     32.000000
 -0.062500  0.250000  0.000000     32.000000
  0.437500  0.062500  0.000000     32.000000
  0.375000  0.437500  0.000000     32.000000
 -0.062500  0.375000  0.000000     32.000000
 -0.437500  0.062500  0.000000     32.000000
  0.500000 -0.437500  0.000000     32.000000
 -0.062500  0.500000  0.000000     32.000000
 -0.312500  0.062500  0.000000     32.000000
 -0.375000 -0.312500  0.000000     32.000000
 -0.062500 -0.375000  0.000000     32.000000
 -0.187500  0.062500  0.000000     32.000000
 -0.250000 -0.187500  0.000000     32.000000
 -0.062500 -0.250000  0.000000     32.000000
 -0.062500  0.062500  0.000000     32.000000
 -0.125000 -0.062500  0.000000     16.000000
  0.187500  0.187500  0.000000     32.000000
  0.000000  0.187500  0.000000     16.000000
  0.312500  0.187500  0.000000     32.000000
  0.125000  0.312500  0.000000     32.000000
 -0.187500  0.125000  0.000000     32.000000
  0.437500  0.187500  0.000000     32.000000
  0.250000  0.437500  0.000000     32.000000
 -0.187500  0.250000  0.000000     32.000000
 -0.437500  0.187500  0.000000     32.000000
  0.375000 -0.437500  0.000000     32.000000
 -0.187500  0.375000  0.000000     32.000000
 -0.312500  0.187500  0.000000     32.000000
  0.500000 -0.312500  0.000000     32.000000
 -0.187500  0.500000  0.000000     32.000000
 -0.187500  0.187500  0.000000     32.000000
 -0.375000 -0.187500  0.000000     16.000000
  0.312500  0.312500  0.000000     32.000000
  0.000000  0.312500  0.000000     16.000000
  0.437500  0.312500  0.000000     32.000000
  0.125000  0.437500  0.000000     32.000000
 -0.312500  0.125000  0.000000     32.000000
 -0.437500  0.312500  0.000000     32.000000
  0.250000 -0.437500  0.000000     32.000000
 -0.312500  0.250000  0.000000     32.000000
 -0.312500  0.312500  0.000000     32.000000
  0.375000 -0.312500  0.000000     16.000000
  0.437500  0.437500  0.000000     32.000000
  0.000000  0.437500  0.000000     16.000000
 -0.437500  0.437500  0.000000     32.000000
  0.125000 -0.437500  0.000000     16.000000
 
 Following cartesian coordinates:
            Coordinates               Weight
  0.011217  0.006476  0.000000     32.000000
  0.000000  0.012952  0.000000     16.000000
  0.033650 -0.006476  0.000000     32.000000
  0.022434  0.025904  0.000000     32.000000
 -0.011217  0.032380  0.000000     32.000000
  0.056084 -0.019428  0.000000     32.000000
  0.044867  0.038856  0.000000     32.000000
 -0.011217  0.058284  0.000000     32.000000
  0.078518 -0.032380  0.000000     32.000000
  0.067301  0.051808  0.000000     32.000000
 -0.011217  0.084188  0.000000     32.000000
 -0.078518  0.058284  0.000000     32.000000
  0.089734 -0.142472  0.000000     32.000000
 -0.011217  0.110092  0.000000     32.000000
 -0.056084  0.045332  0.000000     32.000000
 -0.067301 -0.025904  0.000000     32.000000
 -0.011217 -0.071236  0.000000     32.000000
 -0.033650  0.032380  0.000000     32.000000
 -0.044867 -0.012952  0.000000     32.000000
 -0.011217 -0.045332  0.000000     32.000000
 -0.011217  0.019428  0.000000     32.000000
 -0.022434  0.000000  0.000000     16.000000
  0.033650  0.019428  0.000000     32.000000
  0.000000  0.038856  0.000000     16.000000
  0.056084  0.006476  0.000000     32.000000
  0.022434  0.051808  0.000000     32.000000
 -0.033650  0.045332  0.000000     32.000000
  0.078518 -0.006476  0.000000     32.000000
  0.044867  0.064760  0.000000     32.000000
 -0.033650  0.071236  0.000000     32.000000
 -0.078518  0.084188  0.000000     32.000000
  0.067301 -0.129520  0.000000     32.000000
 -0.033650  0.097140  0.000000     32.000000
 -0.056084  0.071236  0.000000     32.000000
  0.089734 -0.116568  0.000000     32.000000
 -0.033650  0.123044  0.000000     32.000000
 -0.033650  0.058284  0.000000     32.000000
 -0.067301  0.000000  0.000000     16.000000
  0.056084  0.032380  0.000000     32.000000
  0.000000  0.064760  0.000000     16.000000
  0.078518  0.019428  0.000000     32.000000
  0.022434  0.077712  0.000000     32.000000
 -0.056084  0.058284  0.000000     32.000000
 -0.078518  0.110092  0.000000     32.000000
  0.044867 -0.116568  0.000000     32.000000
 -0.056084  0.084188  0.000000     32.000000
 -0.056084  0.097140  0.000000     32.000000
  0.067301 -0.103616  0.000000     16.000000
  0.078518  0.045332  0.000000     32.000000
  0.000000  0.090664  0.000000     16.000000
 -0.078518  0.135996  0.000000     32.000000
  0.022434 -0.103616  0.000000     16.000000
 


--------------------------------------------------------------------------------------------------------




 Dimension of arrays:
   k-points           NKPTS =     52   k-points in BZ     NKDIM =     52   number of bands    NBANDS=    120
   number of dos      NEDOS =    301   number of ions     NIONS =     20
   non local maximal  LDIM  =      6   non local SUM 2l+1 LMDIM =     18
   total plane-waves  NPLWV = 109760
   max r-space proj   IRMAX =   2305   max aug-charges    IRDMAX=   8172
   dimension x,y,z NGX =    28 NGY =   28 NGZ =  140
   dimension x,y,z NGXF=    56 NGYF=   56 NGZF=  280
   support grid    NGXF=    56 NGYF=   56 NGZF=  280
   ions per type =               1  18   1
   NGX,Y,Z   is equivalent  to a cutoff of   8.35,  8.35,  8.00 a.u.
   NGXF,Y,Z  is equivalent  to a cutoff of  16.71, 16.71, 16.00 a.u.

 SYSTEM =  0_3_Rh12_Ag4                            
 POSCAR =  Ag Pd Rh                                

 Startparameter for this run:
   NWRITE =      2    write-flag & timer
   PREC   = normal    normal or accurate (medium, high low for compatibility)
   ISTART =      0    job   : 0-new  1-cont  2-samecut
   ICHARG =      2    charge: 1-file 2-atom 10-const
   ISPIN  =      1    spin polarized calculation?
   LNONCOLLINEAR =      F non collinear calculations
   LSORBIT =      F    spin-orbit coupling
   INIWAV =      1    electr: 0-lowe 1-rand  2-diag
   LASPH  =      F    aspherical Exc in radial PAW
   METAGGA=      F    non-selfconsistent MetaGGA calc.

 Electronic Relaxation 1
   ENCUT  =  350.0 eV  25.72 Ry    5.07 a.u.   8.50  8.50 44.39*2*pi/ulx,y,z
   ENINI  =  350.0     initial cutoff
   ENAUG  =  416.2 eV  augmentation charge cutoff
   NELM   =    300;   NELMIN=  5; NELMDL= -5     # of ELM steps 
   EDIFF  = 0.1E-04   stopping-criterion for ELM
   LREAL  =      T    real-space projection
   NLSPLINE    = F    spline interpolate recip. space projectors
   LCOMPAT=      F    compatible to vasp.4.4
   GGA_COMPAT  = T    GGA compatible to vasp.4.4-vasp.4.6
   LMAXPAW     = -100 max onsite density
   LMAXMIX     =    2 max onsite mixed and CHGCAR
   VOSKOWN=      0    Vosko Wilk Nusair interpolation
   ROPT   =   -0.00050  -0.00050  -0.00050
 Ionic relaxation
   EDIFFG = 0.1E-03   stopping-criterion for IOM
   NSW    =      0    number of steps for IOM
   NBLOCK =      1;   KBLOCK =      1    inner block; outer block 
   IBRION =     -1    ionic relax: 0-MD 1-quasi-New 2-CG
   NFREE  =      0    steps in history (QN), initial steepest desc. (CG)
   ISIF   =      2    stress and relaxation
   IWAVPR =     10    prediction:  0-non 1-charg 2-wave 3-comb
   ISYM   =      2    0-nonsym 1-usesym 2-fastsym
   LCORR  =      T    Harris-Foulkes like correction to forces

   POTIM  = 0.5000    time-step for ionic-motion
   TEIN   =    0.0    initial temperature
   TEBEG  =    0.0;   TEEND  =   0.0 temperature during run
   SMASS  =  -3.00    Nose mass-parameter (am)
   estimated Nose-frequenzy (Omega)   =  0.10E-29 period in steps =****** mass=  -0.710E-27a.u.
   SCALEE = 1.0000    scale energy and forces
   NPACO  =    256;   APACO  = 16.0  distance and # of slots for P.C.
   PSTRESS=    0.0 pullay stress

  Mass of Ions in am
   POMASS = 107.87106.42102.91
  Ionic Valenz
   ZVAL   =  11.00 10.00  9.00
  Atomic Wigner-Seitz radii
   RWIGS  =  -1.00 -1.00 -1.00
  virtual crystal weights 
   VCA    =   1.00  1.00  1.00
   NELECT =     200.0000    total number of electrons
   NUPDOWN=      -1.0000    fix difference up-down

 DOS related values:
   EMIN   =  10.00;   EMAX   =-10.00  energy-range for DOS
   EFERMI =   0.00
   ISMEAR =     1;   SIGMA  =   0.40  broadening in eV -4-tet -1-fermi 0-gaus

 Electronic relaxation 2 (details)
   IALGO  =     38    algorithm
   LDIAG  =      T    sub-space diagonalisation (order eigenvalues)
   LSUBROT=      F    optimize rotation matrix (better conditioning)
   TURBO    =      0    0=normal 1=particle mesh
   IRESTART =      0    0=no restart 2=restart with 2 vectors
   NREBOOT  =      0    no. of reboots
   NMIN     =      0    reboot dimension
   EREF     =   0.00    reference energy to select bands
   IMIX   =      4    mixing-type and parameters
     AMIX     =   0.40;   BMIX     =  1.00
     AMIX_MAG =   1.60;   BMIX_MAG =  1.00
     AMIN     =   0.10
     WC   =   100.;   INIMIX=   1;  MIXPRE=   1;  MAXMIX= -45

 Intra band minimization:
   WEIMIN = 0.0000     energy-eigenvalue tresh-hold
   EBREAK =  0.21E-07  absolut break condition
   DEPER  =   0.30     relativ break condition  

   TIME   =   0.40     timestep for ELM

  volume/ion in A,a.u.               =      39.12       264.00
  Fermi-wavevector in a.u.,A,eV,Ry     =   1.038981  1.963389 14.687236  1.079481
  Thomas-Fermi vector in A             =   2.173490
 
 Write flags
   LWAVE        =      F    write WAVECAR
   LDOWNSAMPLE  =      F    k-point downsampling of WAVECAR
   LCHARG       =      F    write CHGCAR
   LVTOT        =      F    write LOCPOT, total local potential
   LVHAR        =      F    write LOCPOT, Hartree potential only
   LELF         =      F    write electronic localiz. function (ELF)
   LORBIT       =     11    0 simple, 1 ext, 2 COOP (PROOUT), +10 PAW based schemes


 Dipole corrections
   LMONO  =      F    monopole corrections only (constant potential shift)
   LDIPOL =      F    correct potential (dipole corrections)
   IDIPOL =      0    1-x, 2-y, 3-z, 4-all directions 
   EPSILON=  1.0000000 bulk dielectric constant

 Exchange correlation treatment:
   GGA     =    --    GGA type
   LEXCH   =     8    internal setting for exchange type
   VOSKOWN=      0    Vosko Wilk Nusair interpolation
   LHFCALC =     F    Hartree Fock is set to
   LHFONE  =     F    Hartree Fock one center treatment
   AEXX    =    0.0000 exact exchange contribution

 Linear response parameters
   LEPSILON=     F    determine dielectric tensor
   LRPA    =     F    only Hartree local field effects (RPA)
   LNABLA  =     F    use nabla operator in PAW spheres
   LVEL    =     F    velocity operator in full k-point grid
   LINTERFAST=   F  fast interpolation
   KINTER  =     0    interpolate to denser k-point grid
   CSHIFT  =0.1000    complex shift for real part using Kramers Kronig
   OMEGAMAX=  -1.0    maximum frequency
   DEG_THRESHOLD= 0.2000000E-02 threshold for treating states as degnerate
   RTIME   =   -0.100 relaxation time in fs
  (WPLASMAI=    0.000 imaginary part of plasma frequency in eV, 0.658/RTIME)
   DFIELD  = 0.0000000 0.0000000 0.0000000 field for delta impulse in time
 
 Orbital magnetization related:
   ORBITALMAG=     F  switch on orbital magnetization
   LCHIMAG   =     F  perturbation theory with respect to B field
   DQ        =  0.001000  dq finite difference perturbation B field
   LLRAUG    =     F  two centre corrections for induced B field



--------------------------------------------------------------------------------------------------------


 Static calculation
 charge density and potential will be updated during run
 non-spin polarized calculation
 Variant of blocked Davidson
 Davidson routine will perform the subspace rotation
 perform sub-space diagonalisation
    after iterative eigenvector-optimisation
 modified Broyden-mixing scheme, WC =      100.0
 initial mixing is a Kerker type mixing with AMIX =  0.4000 and BMIX =      1.0000
 Hartree-type preconditioning will be used
 using additional bands           20
 real space projection scheme for non local part
 use partial core corrections
 calculate Harris-corrections to forces 
   (improved forces if not selfconsistent)
 use gradient corrections 
 use of overlap-Matrix (Vanderbilt PP)
 Methfessel and Paxton  Order N= 1 SIGMA  =   0.40


--------------------------------------------------------------------------------------------------------


  energy-cutoff  :      350.00
  volume of cell :      782.41
      direct lattice vectors                 reciprocal lattice vectors
     5.572001436  0.000000000  0.000000000     0.179468726 -0.103616317  0.000000000
     2.786000718  4.825494793  0.000000000     0.000000000  0.207232635  0.000000000
     0.000000000  0.000000000 29.099040242     0.000000000  0.000000000  0.034365395

  length of vectors
     5.572001436  5.572001436 29.099040242     0.207232635  0.207232635  0.034365395


 
 k-points in units of 2pi/SCALE and weight: 0_3_Rh12_Ag4                            
   0.01121680  0.00647602  0.00000000       0.021
   0.00000000  0.01295204  0.00000000       0.010
   0.03365039 -0.00647602  0.00000000       0.021
   0.02243359  0.02590408  0.00000000       0.021
  -0.01121680  0.03238010  0.00000000       0.021
   0.05608398 -0.01942806  0.00000000       0.021
   0.04486718  0.03885612  0.00000000       0.021
  -0.01121680  0.05828418  0.00000000       0.021
   0.07851757 -0.03238010  0.00000000       0.021
   0.06730077  0.05180816  0.00000000       0.021
  -0.01121680  0.08418826  0.00000000       0.021
  -0.07851757  0.05828418  0.00000000       0.021
   0.08973436 -0.14247244  0.00000000       0.021
  -0.01121680  0.11009234  0.00000000       0.021
  -0.05608398  0.04533214  0.00000000       0.021
  -0.06730077 -0.02590408  0.00000000       0.021
  -0.01121680 -0.07123622  0.00000000       0.021
  -0.03365039  0.03238010  0.00000000       0.021
  -0.04486718 -0.01295204  0.00000000       0.021
  -0.01121680 -0.04533214  0.00000000       0.021
  -0.01121680  0.01942806  0.00000000       0.021
  -0.02243359  0.00000000  0.00000000       0.010
   0.03365039  0.01942806  0.00000000       0.021
   0.00000000  0.03885612  0.00000000       0.010
   0.05608398  0.00647602  0.00000000       0.021
   0.02243359  0.05180816  0.00000000       0.021
  -0.03365039  0.04533214  0.00000000       0.021
   0.07851757 -0.00647602  0.00000000       0.021
   0.04486718  0.06476020  0.00000000       0.021
  -0.03365039  0.07123622  0.00000000       0.021
  -0.07851757  0.08418826  0.00000000       0.021
   0.06730077 -0.12952040  0.00000000       0.021
  -0.03365039  0.09714030  0.00000000       0.021
  -0.05608398  0.07123622  0.00000000       0.021
   0.08973436 -0.11656836  0.00000000       0.021
  -0.03365039  0.12304438  0.00000000       0.021
  -0.03365039  0.05828418  0.00000000       0.021
  -0.06730077  0.00000000  0.00000000       0.010
   0.05608398  0.03238010  0.00000000       0.021
   0.00000000  0.06476020  0.00000000       0.010
   0.07851757  0.01942806  0.00000000       0.021
   0.02243359  0.07771224  0.00000000       0.021
  -0.05608398  0.05828418  0.00000000       0.021
  -0.07851757  0.11009234  0.00000000       0.021
   0.04486718 -0.11656836  0.00000000       0.021
  -0.05608398  0.08418826  0.00000000       0.021
  -0.05608398  0.09714030  0.00000000       0.021
   0.06730077 -0.10361632  0.00000000       0.010
   0.07851757  0.04533214  0.00000000       0.021
   0.00000000  0.09066428  0.00000000       0.010
  -0.07851757  0.13599642  0.00000000       0.021
   0.02243359 -0.10361632  0.00000000       0.010
 
 k-points in reciprocal lattice and weights: 0_3_Rh12_Ag4                            
   0.06250000  0.06250000  0.00000000       0.021
   0.00000000  0.06250000  0.00000000       0.010
   0.18750000  0.06250000  0.00000000       0.021
   0.12500000  0.18750000  0.00000000       0.021
  -0.06250000  0.12500000  0.00000000       0.021
   0.31250000  0.06250000  0.00000000       0.021
   0.25000000  0.31250000  0.00000000       0.021
  -0.06250000  0.25000000  0.00000000       0.021
   0.43750000  0.06250000  0.00000000       0.021
   0.37500000  0.43750000  0.00000000       0.021
  -0.06250000  0.37500000  0.00000000       0.021
  -0.43750000  0.06250000  0.00000000       0.021
   0.50000000 -0.43750000  0.00000000       0.021
  -0.06250000  0.50000000  0.00000000       0.021
  -0.31250000  0.06250000  0.00000000       0.021
  -0.37500000 -0.31250000  0.00000000       0.021
  -0.06250000 -0.37500000  0.00000000       0.021
  -0.18750000  0.06250000  0.00000000       0.021
  -0.25000000 -0.18750000  0.00000000       0.021
  -0.06250000 -0.25000000  0.00000000       0.021
  -0.06250000  0.06250000  0.00000000       0.021
  -0.12500000 -0.06250000  0.00000000       0.010
   0.18750000  0.18750000  0.00000000       0.021
   0.00000000  0.18750000  0.00000000       0.010
   0.31250000  0.18750000  0.00000000       0.021
   0.12500000  0.31250000  0.00000000       0.021
  -0.18750000  0.12500000  0.00000000       0.021
   0.43750000  0.18750000  0.00000000       0.021
   0.25000000  0.43750000  0.00000000       0.021
  -0.18750000  0.25000000  0.00000000       0.021
  -0.43750000  0.18750000  0.00000000       0.021
   0.37500000 -0.43750000  0.00000000       0.021
  -0.18750000  0.37500000  0.00000000       0.021
  -0.31250000  0.18750000  0.00000000       0.021
   0.50000000 -0.31250000  0.00000000       0.021
  -0.18750000  0.50000000  0.00000000       0.021
  -0.18750000  0.18750000  0.00000000       0.021
  -0.37500000 -0.18750000  0.00000000       0.010
   0.31250000  0.31250000  0.00000000       0.021
   0.00000000  0.31250000  0.00000000       0.010
   0.43750000  0.31250000  0.00000000       0.021
   0.12500000  0.43750000  0.00000000       0.021
  -0.31250000  0.12500000  0.00000000       0.021
  -0.43750000  0.31250000  0.00000000       0.021
   0.25000000 -0.43750000  0.00000000       0.021
  -0.31250000  0.25000000  0.00000000       0.021
  -0.31250000  0.31250000  0.00000000       0.021
   0.37500000 -0.31250000  0.00000000       0.010
   0.43750000  0.43750000  0.00000000       0.021
   0.00000000  0.43750000  0.00000000       0.010
  -0.43750000  0.43750000  0.00000000       0.021
   0.12500000 -0.43750000  0.00000000       0.010
 
 position of ions in fractional coordinates (direct lattice) 
   0.83333333  0.83333333  0.57799558
   0.83333333  0.33333333  0.34365395
   0.33333333  0.33333333  0.34365395
   0.83333333  0.83333333  0.34365395
   0.33333333  0.83333333  0.34365395
   0.00000000  0.00000000  0.42182697
   0.50000000  0.00000000  0.42182697
   0.50000000  0.50000000  0.42182697
   0.16666667  0.16666667  0.49998846
   0.66666667  0.16666667  0.49998846
   0.16666667  0.66666667  0.49998846
   0.66666667  0.66666667  0.49998846
   0.83333333  0.33333333  0.57799558
   0.33333333  0.33333333  0.57799558
   0.33333333  0.83333333  0.57799558
   0.00000000  0.00000000  0.65638769
   0.50000000  0.00000000  0.65638769
   0.00000000  0.50000000  0.65638769
   0.50000000  0.50000000  0.65638769
   0.00000000  0.50000000  0.42182697
 
 position of ions in cartesian coordinates  (Angst):
   6.96500179  4.02124566 16.81911654
   5.57200144  1.60849826 10.00000000
   2.78600072  1.60849826 10.00000000
   6.96500179  4.02124566 10.00000000
   4.17900108  4.02124566 10.00000000
   0.00000000  0.00000000 12.27476006
   2.78600072  0.00000000 12.27476006
   4.17900108  2.41274740 12.27476006
   1.39300036  0.80424913 14.54918418
   4.17900108  0.80424913 14.54918418
   2.78600072  3.21699653 14.54918418
   5.57200144  3.21699653 14.54918418
   5.57200144  1.60849826 16.81911654
   2.78600072  1.60849826 16.81911654
   4.17900108  4.02124566 16.81911654
   0.00000000  0.00000000 19.10025190
   2.78600072  0.00000000 19.10025190
   1.39300036  2.41274740 19.10025190
   4.17900108  2.41274740 19.10025190
   1.39300036  2.41274740 12.27476006
 


--------------------------------------------------------------------------------------------------------


 k-point  1 :   0.0625 0.0625 0.0000  plane waves:   11699
 k-point  2 :   0.0000 0.0625 0.0000  plane waves:   11699
 k-point  3 :   0.1875 0.0625 0.0000  plane waves:   11678
 k-point  4 :   0.1250 0.1875 0.0000  plane waves:   11678
 k-point  5 :  -0.0625 0.1250 0.0000  plane waves:   11678
 k-point  6 :   0.3125 0.0625 0.0000  plane waves:   11644
 k-point  7 :   0.2500 0.3125 0.0000  plane waves:   11644
 k-point  8 :  -0.0625 0.2500 0.0000  plane waves:   11644
 k-point  9 :   0.4375 0.0625 0.0000  plane waves:   11613
 k-point 10 :   0.3750 0.4375 0.0000  plane waves:   11613
 k-point 11 :  -0.0625 0.3750 0.0000  plane waves:   11613
 k-point 12 :  -0.4375 0.0625 0.0000  plane waves:   11584
 k-point 13 :   0.5000-0.4375 0.0000  plane waves:   11584
 k-point 14 :  -0.0625 0.5000 0.0000  plane waves:   11584
 k-point 15 :  -0.3125 0.0625 0.0000  plane waves:   11633
 k-point 16 :  -0.3750-0.3125 0.0000  plane waves:   11633
 k-point 17 :  -0.0625-0.3750 0.0000  plane waves:   11633
 k-point 18 :  -0.1875 0.0625 0.0000  plane waves:   11664
 k-point 19 :  -0.2500-0.1875 0.0000  plane waves:   11664
 k-point 20 :  -0.0625-0.2500 0.0000  plane waves:   11664
 k-point 21 :  -0.0625 0.0625 0.0000  plane waves:   11701
 k-point 22 :  -0.1250-0.0625 0.0000  plane waves:   11701
 k-point 23 :   0.1875 0.1875 0.0000  plane waves:   11669
 k-point 24 :   0.0000 0.1875 0.0000  plane waves:   11669
 k-point 25 :   0.3125 0.1875 0.0000  plane waves:   11655
 k-point 26 :   0.1250 0.3125 0.0000  plane waves:   11655
 k-point 27 :  -0.1875 0.1250 0.0000  plane waves:   11655
 k-point 28 :   0.4375 0.1875 0.0000  plane waves:   11637
 k-point 29 :   0.2500 0.4375 0.0000  plane waves:   11637
 k-point 30 :  -0.1875 0.2500 0.0000  plane waves:   11637
 k-point 31 :  -0.4375 0.1875 0.0000  plane waves:   11602
 k-point 32 :   0.3750-0.4375 0.0000  plane waves:   11602
 k-point 33 :  -0.1875 0.3750 0.0000  plane waves:   11602
 k-point 34 :  -0.3125 0.1875 0.0000  plane waves:   11602
 k-point 35 :   0.5000-0.3125 0.0000  plane waves:   11602
 k-point 36 :  -0.1875 0.5000 0.0000  plane waves:   11602
 k-point 37 :  -0.1875 0.1875 0.0000  plane waves:   11673
 k-point 38 :  -0.3750-0.1875 0.0000  plane waves:   11673
 k-point 39 :   0.3125 0.3125 0.0000  plane waves:   11649
 k-point 40 :   0.0000 0.3125 0.0000  plane waves:   11649
 k-point 41 :   0.4375 0.3125 0.0000  plane waves:   11619
 k-point 42 :   0.1250 0.4375 0.0000  plane waves:   11619
 k-point 43 :  -0.3125 0.1250 0.0000  plane waves:   11619
 k-point 44 :  -0.4375 0.3125 0.0000  plane waves:   11603
 k-point 45 :   0.2500-0.4375 0.0000  plane waves:   11603
 k-point 46 :  -0.3125 0.2500 0.0000  plane waves:   11603
 k-point 47 :  -0.3125 0.3125 0.0000  plane waves:   11606
 k-point 48 :   0.3750-0.3125 0.0000  plane waves:   11606
 k-point 49 :   0.4375 0.4375 0.0000  plane waves:   11610
 k-point 50 :   0.0000 0.4375 0.0000  plane waves:   11610
 k-point 51 :  -0.4375 0.4375 0.0000  plane waves:   11600
 k-point 52 :   0.1250-0.4375 0.0000  plane waves:   11600

 maximum and minimum number of plane-waves per node :      1694     1624

 maximum number of plane-waves:     11701
 maximum index in each direction: 
   IXMAX=    8   IYMAX=    8   IZMAX=   44
   IXMIN=   -8   IYMIN=   -8   IZMIN=  -44


 real space projection operators:
  total allocation   :       5599.55 KBytes
  max/ min on nodes  :        811.12        790.17


 parallel 3D FFT for wavefunctions:
    minimum data exchange during FFTs selected (reduces bandwidth)
 parallel 3D FFT for charge:
    minimum data exchange during FFTs selected (reduces bandwidth)


 total amount of memory used by VASP MPI-rank0    79321. kBytes
=======================================================================

   base      :      30000. kBytes
   nonlr-proj:       1756. kBytes
   fftplans  :       1543. kBytes
   grid      :       2646. kBytes
   one-center:         46. kBytes
   wavefun   :      43330. kBytes
 
     INWAV:  cpu time    0.0000: real time    0.0000
 Broyden mixing: mesh for mixing (old mesh)
   NGX = 17   NGY = 17   NGZ = 89
  (NGX  = 56   NGY  = 56   NGZ  =280)
  gives a total of  25721 points

 initial charge density was supplied:
 charge density of overlapping atoms calculated
 number of electron     200.0000000 magnetization 
 keeping initial charge density in first step


--------------------------------------------------------------------------------------------------------


 Maximum index for non-local projection operator          325
 Maximum index for augmentation-charges          427 (set IRDMAX)


--------------------------------------------------------------------------------------------------------


 First call to EWALD:  gamma=   0.192
 Maximum number of real-space cells 5x 5x 1
 Maximum number of reciprocal cells 2x 2x 8

    FEWALD:  cpu time    0.0018: real time    0.0018


--------------------------------------- Iteration      1(   1)  ---------------------------------------


    POTLOK:  cpu time    0.0211: real time    0.0277
    SETDIJ:  cpu time    0.0026: real time    0.0026
     EDDAV:  cpu time   10.0584: real time   10.0585
       DOS:  cpu time    0.0082: real time    0.0082
    --------------------------------------------
      LOOP:  cpu time   10.0903: real time   10.0971

 eigenvalue-minimisations  : 12584
 total energy-change (2. order) : 0.1095938E+04  (-0.7516161E+04)
 number of electron     200.0000000 magnetization 
 augmentation part      200.0000000 magnetization 

 Free energy of the ion-electron system (eV)
  ---------------------------------------------------
  alpha Z        PSCENC =       335.40302569
  Ewald energy   TEWEN  =    107494.99285843
  -Hartree energ DENC   =   -124355.69306977
  -exchange      EXHF   =         0.00000000
  -V(xc)+E(xc)   XCENC  =      -557.56257748
  PAW double counting   =     16130.81764090   -14922.76608720
  entropy T*S    EENTRO =        -0.00529138
  eigenvalues    EBANDS =       742.03202414
  atomic energy  EATOM  =     16228.71987288
  Solvation  Ediel_sol  =         0.00000000
  ---------------------------------------------------
  free energy    TOTEN  =      1095.93839621 eV

  energy without entropy =     1095.94368759  energy(sigma->0) =     1095.94016001


--------------------------------------------------------------------------------------------------------




--------------------------------------- Iteration      1(   2)  ---------------------------------------


     EDDAV:  cpu time   10.9475: real time   10.9482
       DOS:  cpu time    0.0100: real time    0.0100
    --------------------------------------------
      LOOP:  cpu time   10.9575: real time   10.9581

 eigenvalue-minimisations  : 14288
 total energy-change (2. order) :-0.1136935E+04  (-0.1066769E+04)
 number of electron     200.0000000 magnetization 
 augmentation part      200.0000000 magnetization 

 Free energy of the ion-electron system (eV)
  ---------------------------------------------------
  alpha Z        PSCENC =       335.40302569
  Ewald energy   TEWEN  =    107494.99285843
  -Hartree energ DENC   =   -124355.69306977
  -exchange      EXHF   =         0.00000000
  -V(xc)+E(xc)   XCENC  =      -557.56257748
  PAW double counting   =     16130.81764090   -14922.76608720
  entropy T*S    EENTRO =         0.05985737
  eigenvalues    EBANDS =      -394.96842369
  atomic energy  EATOM  =     16228.71987288
  Solvation  Ediel_sol  =         0.00000000
  ---------------------------------------------------
  free energy    TOTEN  =       -40.99690285 eV

  energy without entropy =      -41.05676023  energy(sigma->0) =      -41.01685531


--------------------------------------------------------------------------------------------------------




--------------------------------------- Iteration      1(   3)  ---------------------------------------


     EDDAV:  cpu time   11.0394: real time   11.0396
       DOS:  cpu time    0.0108: real time    0.0108
    --------------------------------------------
      LOOP:  cpu time   11.0502: real time   11.0504

 eigenvalue-minimisations  : 14440
 total energy-change (2. order) :-0.6155662E+02  (-0.5484933E+02)
 number of electron     200.0000000 magnetization 
 augmentation part      200.0000000 magnetization 

 Free energy of the ion-electron system (eV)
  ---------------------------------------------------
  alpha Z        PSCENC =       335.40302569
  Ewald energy   TEWEN  =    107494.99285843
  -Hartree energ DENC   =   -124355.69306977
  -exchange      EXHF   =         0.00000000
  -V(xc)+E(xc)   XCENC  =      -557.56257748
  PAW double counting   =     16130.81764090   -14922.76608720
  entropy T*S    EENTRO =        -0.25450475
  eigenvalues    EBANDS =      -456.21067725
  atomic energy  EATOM  =     16228.71987288
  Solvation  Ediel_sol  =         0.00000000
  ---------------------------------------------------
  free energy    TOTEN  =      -102.55351854 eV

  energy without entropy =     -102.29901379  energy(sigma->0) =     -102.46868363


--------------------------------------------------------------------------------------------------------




--------------------------------------- Iteration      1(   4)  ---------------------------------------


     EDDAV:  cpu time   11.1040: real time   11.1054
       DOS:  cpu time    0.0109: real time    0.0109
    --------------------------------------------
      LOOP:  cpu time   11.1149: real time   11.1163

 eigenvalue-minimisations  : 14592
 total energy-change (2. order) :-0.1960539E+01  (-0.1931215E+01)
 number of electron     200.0000000 magnetization 
 augmentation part      200.0000000 magnetization 

 Free energy of the ion-electron system (eV)
  ---------------------------------------------------
  alpha Z        PSCENC =       335.40302569
  Ewald energy   TEWEN  =    107494.99285843
  -Hartree energ DENC   =   -124355.69306977
  -exchange      EXHF   =         0.00000000
  -V(xc)+E(xc)   XCENC  =      -557.56257748
  PAW double counting   =     16130.81764090   -14922.76608720
  entropy T*S    EENTRO =        -0.26286173
  eigenvalues    EBANDS =      -458.16285975
  atomic energy  EATOM  =     16228.71987288
  Solvation  Ediel_sol  =         0.00000000
  ---------------------------------------------------
  free energy    TOTEN  =      -104.51405801 eV

  energy without entropy =     -104.25119629  energy(sigma->0) =     -104.42643744


--------------------------------------------------------------------------------------------------------




--------------------------------------- Iteration      1(   5)  ---------------------------------------


     EDDAV:  cpu time   11.5651: real time   11.5653
       DOS:  cpu time    0.0112: real time    0.0112
    CHARGE:  cpu time    0.4525: real time    0.4525
    MIXING:  cpu time    0.0009: real time    0.0009
    --------------------------------------------
      LOOP:  cpu time   12.0297: real time   12.0300

 eigenvalue-minimisations  : 15424
 total energy-change (2. order) :-0.6272018E-01  (-0.6266981E-01)
 number of electron     199.9999759 magnetization 
 augmentation part       81.1414152 magnetization 

 Broyden mixing:
  rms(total) = 0.28741E+01    rms(broyden)= 0.28738E+01
  rms(prec ) = 0.29158E+01
  weight for this iteration     100.00

 Free energy of the ion-electron system (eV)
  ---------------------------------------------------
  alpha Z        PSCENC =       335.40302569
  Ewald energy   TEWEN  =    107494.99285843
  -Hartree energ DENC   =   -124355.69306977
  -exchange      EXHF   =         0.00000000
  -V(xc)+E(xc)   XCENC  =      -557.56257748
  PAW double counting   =     16130.81764090   -14922.76608720
  entropy T*S    EENTRO =        -0.26297807
  eigenvalues    EBANDS =      -458.22546358
  atomic energy  EATOM  =     16228.71987288
  Solvation  Ediel_sol  =         0.00000000
  ---------------------------------------------------
  free energy    TOTEN  =      -104.57677820 eV

  energy without entropy =     -104.31380012  energy(sigma->0) =     -104.48911884


--------------------------------------------------------------------------------------------------------




--------------------------------------- Iteration      1(   6)  ---------------------------------------


    POTLOK:  cpu time    0.0173: real time    0.0177
    SETDIJ:  cpu time    0.0025: real time    0.0025
     EDDAV:  cpu time   10.3418: real time   10.3420
       DOS:  cpu time    0.0110: real time    0.0110
    CHARGE:  cpu time    0.4495: real time    0.4495
    MIXING:  cpu time    0.0010: real time    0.0010
    --------------------------------------------
      LOOP:  cpu time   10.8230: real time   10.8236

 eigenvalue-minimisations  : 13152
 total energy-change (2. order) :-0.3358052E+01  (-0.3465424E+01)
 number of electron     199.9999740 magnetization 
 augmentation part       83.9742063 magnetization 

 Broyden mixing:
  rms(total) = 0.29509E+01    rms(broyden)= 0.29507E+01
  rms(prec ) = 0.40774E+01
  weight for this iteration     100.00

 eigenvalues of (default mixing * dielectric matrix)
  average eigenvalue GAMMA=   0.5272
  0.5272

 Free energy of the ion-electron system (eV)
  ---------------------------------------------------
  alpha Z        PSCENC =       335.40302569
  Ewald energy   TEWEN  =    107494.99285843
  -Hartree energ DENC   =   -124267.79957393
  -exchange      EXHF   =         0.00000000
  -V(xc)+E(xc)   XCENC  =      -561.73463590
  PAW double counting   =     17194.65818438   -16010.09476802
  entropy T*S    EENTRO =        -0.16644078
  eigenvalues    EBANDS =      -521.91335293
  atomic energy  EATOM  =     16228.71987288
  Solvation  Ediel_sol  =         0.00000000
  ---------------------------------------------------
  free energy    TOTEN  =      -107.93483018 eV

  energy without entropy =     -107.76838940  energy(sigma->0) =     -107.87934992


--------------------------------------------------------------------------------------------------------




--------------------------------------- Iteration      1(   7)  ---------------------------------------


    POTLOK:  cpu time    0.0175: real time    0.0180
    SETDIJ:  cpu time    0.0025: real time    0.0025
     EDDAV:  cpu time   12.2891: real time   12.2893
       DOS:  cpu time    0.0102: real time    0.0101
    CHARGE:  cpu time    0.4515: real time    0.4515
    MIXING:  cpu time    0.0010: real time    0.0010
    --------------------------------------------
      LOOP:  cpu time   12.7717: real time   12.7723

 eigenvalue-minimisations  : 16752
 total energy-change (2. order) :-0.2514415E+02  (-0.6222101E+01)
 number of electron     199.9999748 magnetization 
 augmentation part       81.7011998 magnetization 

 Broyden mixing:
  rms(total) = 0.39416E+01    rms(broyden)= 0.39413E+01
  rms(prec ) = 0.61479E+01
  weight for this iteration     100.00

 eigenvalues of (default mixing * dielectric matrix)
  average eigenvalue GAMMA=   0.6774
  1.2427  0.1121

 Free energy of the ion-electron system (eV)
  ---------------------------------------------------
  alpha Z        PSCENC =       335.40302569
  Ewald energy   TEWEN  =    107494.99285843
  -Hartree energ DENC   =   -124315.84332826
  -exchange      EXHF   =         0.00000000
  -V(xc)+E(xc)   XCENC  =      -562.02075032
  PAW double counting   =     17378.88989071   -16197.61975736
  entropy T*S    EENTRO =        -0.05194921
  eigenvalues    EBANDS =      -495.54884717
  atomic energy  EATOM  =     16228.71987288
  Solvation  Ediel_sol  =         0.00000000
  ---------------------------------------------------
  free energy    TOTEN  =      -133.07898460 eV

  energy without entropy =     -133.02703539  energy(sigma->0) =     -133.06166820


--------------------------------------------------------------------------------------------------------




--------------------------------------- Iteration      1(   8)  ---------------------------------------


    POTLOK:  cpu time    0.0161: real time    0.0161
    SETDIJ:  cpu time    0.0024: real time    0.0024
     EDDAV:  cpu time   11.7981: real time   11.7983
       DOS:  cpu time    0.0110: real time    0.0110
    CHARGE:  cpu time    0.4508: real time    0.4508
    MIXING:  cpu time    0.0011: real time    0.0011
    --------------------------------------------
      LOOP:  cpu time   12.2794: real time   12.2797

 eigenvalue-minimisations  : 15800
 total energy-change (2. order) : 0.3455806E+01  (-0.6172165E+01)
 number of electron     199.9999756 magnetization 
 augmentation part       82.9475799 magnetization 

 Broyden mixing:
  rms(total) = 0.40763E+01    rms(broyden)= 0.40761E+01
  rms(prec ) = 0.49993E+01
  weight for this iteration     100.00

 eigenvalues of (default mixing * dielectric matrix)
  average eigenvalue GAMMA=   0.6601
  1.6822  0.1868  0.1113

 Free energy of the ion-electron system (eV)
  ---------------------------------------------------
  alpha Z        PSCENC =       335.40302569
  Ewald energy   TEWEN  =    107494.99285843
  -Hartree energ DENC   =   -124405.54038564
  -exchange      EXHF   =         0.00000000
  -V(xc)+E(xc)   XCENC  =      -563.37500837
  PAW double counting   =     17960.50341302   -16792.27592399
  entropy T*S    EENTRO =        -0.08909545
  eigenvalues    EBANDS =      -387.96193551
  atomic energy  EATOM  =     16228.71987288
  Solvation  Ediel_sol  =         0.00000000
  ---------------------------------------------------
  free energy    TOTEN  =      -129.62317894 eV

  energy without entropy =     -129.53408349  energy(sigma->0) =     -129.59348046


--------------------------------------------------------------------------------------------------------




--------------------------------------- Iteration      1(   9)  ---------------------------------------


    POTLOK:  cpu time    0.0170: real time    0.0171
    SETDIJ:  cpu time    0.0025: real time    0.0025
     EDDAV:  cpu time   10.9929: real time   10.9931
       DOS:  cpu time    0.0113: real time    0.0113
    CHARGE:  cpu time    0.4509: real time    0.4509
    MIXING:  cpu time    0.0012: real time    0.0012
    --------------------------------------------
      LOOP:  cpu time   11.4757: real time   11.4760

 eigenvalue-minimisations  : 14352
 total energy-change (2. order) : 0.2275770E+02  (-0.3738033E+01)
 number of electron     199.9999747 magnetization 
 augmentation part       85.8709145 magnetization 

 Broyden mixing:
  rms(total) = 0.26586E+01    rms(broyden)= 0.26585E+01
  rms(prec ) = 0.31720E+01
  weight for this iteration     100.00

 eigenvalues of (default mixing * dielectric matrix)
  average eigenvalue GAMMA=   0.5887
  1.7644  0.1068  0.2418  0.2418

 Free energy of the ion-electron system (eV)
  ---------------------------------------------------
  alpha Z        PSCENC =       335.40302569
  Ewald energy   TEWEN  =    107494.99285843
  -Hartree energ DENC   =   -124233.66452190
  -exchange      EXHF   =         0.00000000
  -V(xc)+E(xc)   XCENC  =      -564.06217677
  PAW double counting   =     18394.64616437   -17235.37932592
  entropy T*S    EENTRO =         0.12608230
  eigenvalues    EBANDS =      -527.64745577
  atomic energy  EATOM  =     16228.71987288
  Solvation  Ediel_sol  =         0.00000000
  ---------------------------------------------------
  free energy    TOTEN  =      -106.86547668 eV

  energy without entropy =     -106.99155899  energy(sigma->0) =     -106.90750412


--------------------------------------------------------------------------------------------------------




--------------------------------------- Iteration      1(  10)  ---------------------------------------


    POTLOK:  cpu time    0.0200: real time    0.0209
    SETDIJ:  cpu time    0.0025: real time    0.0025
     EDDAV:  cpu time   10.3747: real time   10.3749
       DOS:  cpu time    0.0113: real time    0.0113
    CHARGE:  cpu time    0.4563: real time    0.4563
    MIXING:  cpu time    0.0011: real time    0.0011
    --------------------------------------------
      LOOP:  cpu time   10.8660: real time   10.8670

 eigenvalue-minimisations  : 13216
 total energy-change (2. order) : 0.2365139E+01  (-0.4348797E+01)
 number of electron     199.9999748 magnetization 
 augmentation part       85.3787818 magnetization 

 Broyden mixing:
  rms(total) = 0.18643E+01    rms(broyden)= 0.18640E+01
  rms(prec ) = 0.21791E+01
  weight for this iteration     100.00

 eigenvalues of (default mixing * dielectric matrix)
  average eigenvalue GAMMA=   0.5713
  1.6073  0.7663  0.1078  0.1875  0.1875

 Free energy of the ion-electron system (eV)
  ---------------------------------------------------
  alpha Z        PSCENC =       335.40302569
  Ewald energy   TEWEN  =    107494.99285843
  -Hartree energ DENC   =   -124255.76139594
  -exchange      EXHF   =         0.00000000
  -V(xc)+E(xc)   XCENC  =      -563.51244532
  PAW double counting   =     18568.43270666   -17408.54470847
  entropy T*S    EENTRO =        -0.27609809
  eigenvalues    EBANDS =      -503.95415332
  atomic energy  EATOM  =     16228.71987288
  Solvation  Ediel_sol  =         0.00000000
  ---------------------------------------------------
  free energy    TOTEN  =      -104.50033748 eV

  energy without entropy =     -104.22423939  energy(sigma->0) =     -104.40830478


--------------------------------------------------------------------------------------------------------




--------------------------------------- Iteration      1(  11)  ---------------------------------------


    POTLOK:  cpu time    0.0165: real time    0.0165
    SETDIJ:  cpu time    0.0025: real time    0.0024
     EDDAV:  cpu time   10.4073: real time   10.4074
       DOS:  cpu time    0.0115: real time    0.0115
    CHARGE:  cpu time    0.4522: real time    0.4522
    MIXING:  cpu time    0.0012: real time    0.0012
    --------------------------------------------
      LOOP:  cpu time   10.8911: real time   10.8914

 eigenvalue-minimisations  : 13272
 total energy-change (2. order) : 0.3948034E+01  (-0.8079266E+00)
 number of electron     199.9999742 magnetization 
 augmentation part       84.6922653 magnetization 

 Broyden mixing:
  rms(total) = 0.12370E+01    rms(broyden)= 0.12368E+01
  rms(prec ) = 0.14642E+01
  weight for this iteration     100.00

 eigenvalues of (default mixing * dielectric matrix)
  average eigenvalue GAMMA=   0.5652
  1.7606  0.7818  0.3071  0.1071  0.2174  0.2174

 Free energy of the ion-electron system (eV)
  ---------------------------------------------------
  alpha Z        PSCENC =       335.40302569
  Ewald energy   TEWEN  =    107494.99285843
  -Hartree energ DENC   =   -124288.77101288
  -exchange      EXHF   =         0.00000000
  -V(xc)+E(xc)   XCENC  =      -562.52971028
  PAW double counting   =     18677.56578025   -17514.15985366
  entropy T*S    EENTRO =        -0.30481392
  eigenvalues    EBANDS =      -471.46844952
  atomic energy  EATOM  =     16228.71987288
  Solvation  Ediel_sol  =         0.00000000
  ---------------------------------------------------
  free energy    TOTEN  =      -100.55230301 eV

  energy without entropy =     -100.24748909  energy(sigma->0) =     -100.45069837


--------------------------------------------------------------------------------------------------------




--------------------------------------- Iteration      1(  12)  ---------------------------------------


    POTLOK:  cpu time    0.0177: real time    0.0181
    SETDIJ:  cpu time    0.0024: real time    0.0024
     EDDAV:  cpu time   10.3412: real time   10.3413
       DOS:  cpu time    0.0115: real time    0.0115
    CHARGE:  cpu time    0.4514: real time    0.4514
    MIXING:  cpu time    0.0013: real time    0.0013
    --------------------------------------------
      LOOP:  cpu time   10.8255: real time   10.8259

 eigenvalue-minimisations  : 13168
 total energy-change (2. order) : 0.3748840E+00  (-0.1083228E+01)
 number of electron     199.9999749 magnetization 
 augmentation part       84.4173878 magnetization 

 Broyden mixing:
  rms(total) = 0.79026E+00    rms(broyden)= 0.78994E+00
  rms(prec ) = 0.86413E+00
  weight for this iteration     100.00

 eigenvalues of (default mixing * dielectric matrix)
  average eigenvalue GAMMA=   0.5720
  1.9486  0.6410  0.6410  0.1071  0.2670  0.1997  0.1997

 Free energy of the ion-electron system (eV)
  ---------------------------------------------------
  alpha Z        PSCENC =       335.40302569
  Ewald energy   TEWEN  =    107494.99285843
  -Hartree energ DENC   =   -124314.24835966
  -exchange      EXHF   =         0.00000000
  -V(xc)+E(xc)   XCENC  =      -562.39699553
  PAW double counting   =     18796.03842523   -17632.94098073
  entropy T*S    EENTRO =        -0.34340384
  eigenvalues    EBANDS =      -445.40186151
  atomic energy  EATOM  =     16228.71987288
  Solvation  Ediel_sol  =         0.00000000
  ---------------------------------------------------
  free energy    TOTEN  =      -100.17741904 eV

  energy without entropy =      -99.83401520  energy(sigma->0) =     -100.06295110


--------------------------------------------------------------------------------------------------------




--------------------------------------- Iteration      1(  13)  ---------------------------------------


    POTLOK:  cpu time    0.0174: real time    0.0178
    SETDIJ:  cpu time    0.0025: real time    0.0025
     EDDAV:  cpu time   10.3646: real time   10.3647
       DOS:  cpu time    0.0114: real time    0.0114
    CHARGE:  cpu time    0.4525: real time    0.4525
    MIXING:  cpu time    0.0014: real time    0.0014
    --------------------------------------------
      LOOP:  cpu time   10.8498: real time   10.8504

 eigenvalue-minimisations  : 13176
 total energy-change (2. order) : 0.6455264E+00  (-0.2004752E+00)
 number of electron     199.9999747 magnetization 
 augmentation part       84.5762288 magnetization 

 Broyden mixing:
  rms(total) = 0.47976E+00    rms(broyden)= 0.47961E+00
  rms(prec ) = 0.61616E+00
  weight for this iteration     100.00

 eigenvalues of (default mixing * dielectric matrix)
  average eigenvalue GAMMA=   0.5936
  1.9909  0.7194  0.7194  0.5555  0.1071  0.2407  0.2080  0.2080

 Free energy of the ion-electron system (eV)
  ---------------------------------------------------
  alpha Z        PSCENC =       335.40302569
  Ewald energy   TEWEN  =    107494.99285843
  -Hartree energ DENC   =   -124307.91854218
  -exchange      EXHF   =         0.00000000
  -V(xc)+E(xc)   XCENC  =      -562.56540002
  PAW double counting   =     18867.71172400   -17705.99412770
  entropy T*S    EENTRO =        -0.27818230
  eigenvalues    EBANDS =      -449.60312143
  atomic energy  EATOM  =     16228.71987288
  Solvation  Ediel_sol  =         0.00000000
  ---------------------------------------------------
  free energy    TOTEN  =       -99.53189262 eV

  energy without entropy =      -99.25371032  energy(sigma->0) =      -99.43916519


--------------------------------------------------------------------------------------------------------




--------------------------------------- Iteration      1(  14)  ---------------------------------------


    POTLOK:  cpu time    0.0171: real time    0.0171
    SETDIJ:  cpu time    0.0025: real time    0.0025
     EDDAV:  cpu time   10.4337: real time   10.4339
       DOS:  cpu time    0.0116: real time    0.0116
    CHARGE:  cpu time    0.4537: real time    0.4537
    MIXING:  cpu time    0.0015: real time    0.0015
    --------------------------------------------
      LOOP:  cpu time   10.9201: real time   10.9203

 eigenvalue-minimisations  : 13280
 total energy-change (2. order) :-0.1090994E-01  (-0.1555876E+00)
 number of electron     199.9999748 magnetization 
 augmentation part       84.6443627 magnetization 

 Broyden mixing:
  rms(total) = 0.49841E+00    rms(broyden)= 0.49828E+00
  rms(prec ) = 0.63930E+00
  weight for this iteration     100.00

 eigenvalues of (default mixing * dielectric matrix)
  average eigenvalue GAMMA=   0.5789
  1.9595  0.8476  0.8476  0.4081  0.4081  0.1071  0.2128  0.2128  0.2065

 Free energy of the ion-electron system (eV)
  ---------------------------------------------------
  alpha Z        PSCENC =       335.40302569
  Ewald energy   TEWEN  =    107494.99285843
  -Hartree energ DENC   =   -124310.26941039
  -exchange      EXHF   =         0.00000000
  -V(xc)+E(xc)   XCENC  =      -562.64900751
  PAW double counting   =     18865.64253508   -17704.39312356
  entropy T*S    EENTRO =        -0.29299932
  eigenvalues    EBANDS =      -446.69655386
  atomic energy  EATOM  =     16228.71987288
  Solvation  Ediel_sol  =         0.00000000
  ---------------------------------------------------
  free energy    TOTEN  =       -99.54280256 eV

  energy without entropy =      -99.24980324  energy(sigma->0) =      -99.44513612


--------------------------------------------------------------------------------------------------------




--------------------------------------- Iteration      1(  15)  ---------------------------------------


    POTLOK:  cpu time    0.0170: real time    0.0170
    SETDIJ:  cpu time    0.0025: real time    0.0025
     EDDAV:  cpu time   10.3115: real time   10.3117
       DOS:  cpu time    0.0115: real time    0.0115
    CHARGE:  cpu time    0.4508: real time    0.4508
    MIXING:  cpu time    0.0014: real time    0.0014
    --------------------------------------------
      LOOP:  cpu time   10.7947: real time   10.7950

 eigenvalue-minimisations  : 13032
 total energy-change (2. order) : 0.2448009E-01  (-0.4128495E-01)
 number of electron     199.9999746 magnetization 
 augmentation part       84.6596081 magnetization 

 Broyden mixing:
  rms(total) = 0.47443E+00    rms(broyden)= 0.47438E+00
  rms(prec ) = 0.63716E+00
  weight for this iteration     100.00

 eigenvalues of (default mixing * dielectric matrix)
  average eigenvalue GAMMA=   0.6827
  1.9527  1.3855  1.3855  0.5524  0.5524  0.1071  0.2747  0.2093  0.2093  0.1978

 Free energy of the ion-electron system (eV)
  ---------------------------------------------------
  alpha Z        PSCENC =       335.40302569
  Ewald energy   TEWEN  =    107494.99285843
  -Hartree energ DENC   =   -124310.90378038
  -exchange      EXHF   =         0.00000000
  -V(xc)+E(xc)   XCENC  =      -562.60893735
  PAW double counting   =     18848.85526498   -17687.30425889
  entropy T*S    EENTRO =        -0.25405129
  eigenvalues    EBANDS =      -446.41831655
  atomic energy  EATOM  =     16228.71987288
  Solvation  Ediel_sol  =         0.00000000
  ---------------------------------------------------
  free energy    TOTEN  =       -99.51832247 eV

  energy without entropy =      -99.26427118  energy(sigma->0) =      -99.43363871


--------------------------------------------------------------------------------------------------------




--------------------------------------- Iteration      1(  16)  ---------------------------------------


    POTLOK:  cpu time    0.0197: real time    0.0207
    SETDIJ:  cpu time    0.0024: real time    0.0024
     EDDAV:  cpu time   10.4066: real time   10.4067
       DOS:  cpu time    0.0115: real time    0.0115
    CHARGE:  cpu time    0.4482: real time    0.4482
    MIXING:  cpu time    0.0016: real time    0.0016
    --------------------------------------------
      LOOP:  cpu time   10.8900: real time   10.8911

 eigenvalue-minimisations  : 13152
 total energy-change (2. order) : 0.9931314E-01  (-0.5772281E-01)
 number of electron     199.9999747 magnetization 
 augmentation part       84.6310298 magnetization 

 Broyden mixing:
  rms(total) = 0.24745E+00    rms(broyden)= 0.24734E+00
  rms(prec ) = 0.27115E+00
  weight for this iteration     100.00

 eigenvalues of (default mixing * dielectric matrix)
  average eigenvalue GAMMA=   0.6877
  2.0228  1.4792  1.4792  0.5411  0.5411  0.5317  0.1071  0.2113  0.2113  0.2398
  0.2002

 Free energy of the ion-electron system (eV)
  ---------------------------------------------------
  alpha Z        PSCENC =       335.40302569
  Ewald energy   TEWEN  =    107494.99285843
  -Hartree energ DENC   =   -124326.86190012
  -exchange      EXHF   =         0.00000000
  -V(xc)+E(xc)   XCENC  =      -562.48361150
  PAW double counting   =     18810.69206695   -17648.36844822
  entropy T*S    EENTRO =        -0.31137901
  eigenvalues    EBANDS =      -431.20149443
  atomic energy  EATOM  =     16228.71987288
  Solvation  Ediel_sol  =         0.00000000
  ---------------------------------------------------
  free energy    TOTEN  =       -99.41900933 eV

  energy without entropy =      -99.10763032  energy(sigma->0) =      -99.31521633


--------------------------------------------------------------------------------------------------------




--------------------------------------- Iteration      1(  17)  ---------------------------------------


    POTLOK:  cpu time    0.0165: real time    0.0165
    SETDIJ:  cpu time    0.0024: real time    0.0024
     EDDAV:  cpu time   10.3904: real time   10.3905
       DOS:  cpu time    0.0113: real time    0.0113
    CHARGE:  cpu time    0.4480: real time    0.4480
    MIXING:  cpu time    0.0017: real time    0.0017
    --------------------------------------------
      LOOP:  cpu time   10.8702: real time   10.8704

 eigenvalue-minimisations  : 13160
 total energy-change (2. order) : 0.4935617E-02  (-0.2122831E-01)
 number of electron     199.9999746 magnetization 
 augmentation part       84.6089723 magnetization 

 Broyden mixing:
  rms(total) = 0.25379E+00    rms(broyden)= 0.25372E+00
  rms(prec ) = 0.31882E+00
  weight for this iteration     100.00

 eigenvalues of (default mixing * dielectric matrix)
  average eigenvalue GAMMA=   0.6862
  2.3412  1.4050  1.1112  1.1112  0.5298  0.5298  0.1071  0.2086  0.2086  0.2426
  0.2426  0.1969

 Free energy of the ion-electron system (eV)
  ---------------------------------------------------
  alpha Z        PSCENC =       335.40302569
  Ewald energy   TEWEN  =    107494.99285843
  -Hartree energ DENC   =   -124331.45586346
  -exchange      EXHF   =         0.00000000
  -V(xc)+E(xc)   XCENC  =      -562.40075691
  PAW double counting   =     18805.09624372   -17642.52159934
  entropy T*S    EENTRO =        -0.31475566
  eigenvalues    EBANDS =      -426.93309907
  atomic energy  EATOM  =     16228.71987288
  Solvation  Ediel_sol  =         0.00000000
  ---------------------------------------------------
  free energy    TOTEN  =       -99.41407371 eV

  energy without entropy =      -99.09931805  energy(sigma->0) =      -99.30915516


--------------------------------------------------------------------------------------------------------




--------------------------------------- Iteration      1(  18)  ---------------------------------------


    POTLOK:  cpu time    0.0177: real time    0.0181
    SETDIJ:  cpu time    0.0025: real time    0.0025
     EDDAV:  cpu time   10.4289: real time   10.4291
       DOS:  cpu time    0.0114: real time    0.0114
    CHARGE:  cpu time    0.4492: real time    0.4492
    MIXING:  cpu time    0.0017: real time    0.0017
    --------------------------------------------
      LOOP:  cpu time   10.9114: real time   10.9119

 eigenvalue-minimisations  : 13240
 total energy-change (2. order) : 0.5379022E-01  (-0.1373732E-01)
 number of electron     199.9999747 magnetization 
 augmentation part       84.5766026 magnetization 

 Broyden mixing:
  rms(total) = 0.80113E-01    rms(broyden)= 0.80035E-01
  rms(prec ) = 0.89625E-01
  weight for this iteration     100.00

 eigenvalues of (default mixing * dielectric matrix)
  average eigenvalue GAMMA=   0.6653
  2.2395  1.5791  1.0400  1.0400  0.5412  0.5412  0.4618  0.1071  0.2096  0.2096
  0.2535  0.2312  0.1953

 Free energy of the ion-electron system (eV)
  ---------------------------------------------------
  alpha Z        PSCENC =       335.40302569
  Ewald energy   TEWEN  =    107494.99285843
  -Hartree energ DENC   =   -124341.10826351
  -exchange      EXHF   =         0.00000000
  -V(xc)+E(xc)   XCENC  =      -562.36384149
  PAW double counting   =     18814.86729119   -17652.31179573
  entropy T*S    EENTRO =        -0.31937239
  eigenvalues    EBANDS =      -417.24005857
  atomic energy  EATOM  =     16228.71987288
  Solvation  Ediel_sol  =         0.00000000
  ---------------------------------------------------
[...]
    104       0.5779      0.42686
    105       0.6087      0.32816
    106       0.6544      0.20214
    107       1.5911     -0.00033
    108       1.8808     -0.00000
    109       2.0414     -0.00000
    110       2.1046     -0.00000
    111       2.6523     -0.00000
    112       3.9018     -0.00000
    113       3.9245     -0.00000
    114       4.0149     -0.00000
    115       4.1068     -0.00000
    116       4.5720     -0.00000
    117       5.4184     -0.00000
    118       5.4407     -0.00000
    119       5.4654     -0.00000
    120       5.9690     -0.00000

 k-point    52 :       0.1250   -0.4375    0.0000
  band No.  band energies     occupation 
      1      -4.6826      2.00000
      2      -4.5912      2.00000
      3      -4.2645      2.00000
      4      -4.1751      2.00000
      5      -4.1301      2.00000
      6      -4.0942      2.00000
      7      -3.9260      2.00000
      8      -3.9059      2.00000
      9      -3.7937      2.00000
     10      -3.7870      2.00000
     11      -3.7582      2.00000
     12      -3.7080      2.00000
     13      -3.6048      2.00000
     14      -3.5365      2.00000
     15      -3.5067      2.00000
     16      -3.4529      2.00000
     17      -3.4423      2.00000
     18      -3.3914      2.00000
     19      -3.3678      2.00000
     20      -3.2904      2.00000
     21      -3.2378      2.00000
     22      -3.1784      2.00000
     23      -3.1431      2.00000
     24      -3.1243      2.00000
     25      -3.0902      2.00000
     26      -3.0338      2.00000
     27      -3.0277      2.00000
     28      -2.9665      2.00000
     29      -2.9528      2.00000
     30      -2.9360      2.00000
     31      -2.8002      2.00000
     32      -2.7781      2.00000
     33      -2.6544      2.00000
     34      -2.6320      2.00000
     35      -2.6075      2.00000
     36      -2.5784      2.00000
     37      -2.5542      2.00000
     38      -2.4642      2.00000
     39      -2.4079      2.00000
     40      -2.3553      2.00000
     41      -2.2951      2.00000
     42      -2.2293      2.00000
     43      -2.1810      2.00000
     44      -2.1251      2.00000
     45      -2.1010      2.00000
     46      -2.0769      2.00000
     47      -2.0035      2.00000
     48      -1.9373      2.00000
     49      -1.9228      2.00000
     50      -1.8880      2.00000
     51      -1.8712      2.00000
     52      -1.8451      2.00000
     53      -1.7840      2.00000
     54      -1.7639      2.00000
     55      -1.7106      2.00000
     56      -1.7054      2.00000
     57      -1.6850      2.00000
     58      -1.6421      2.00000
     59      -1.6169      2.00000
     60      -1.5835      2.00000
     61      -1.5599      2.00000
     62      -1.5097      2.00000
     63      -1.4931      2.00000
     64      -1.4722      2.00000
     65      -1.4560      2.00000
     66      -1.3186      2.00000
     67      -1.2448      2.00000
     68      -1.2034      2.00000
     69      -1.1636      2.00000
     70      -1.1248      2.00000
     71      -1.0600      2.00000
     72      -1.0205      2.00000
     73      -1.0030      2.00000
     74      -0.9746      2.00001
     75      -0.9110      2.00002
     76      -0.8574      2.00005
     77      -0.7948      2.00013
     78      -0.7429      2.00026
     79      -0.7274      2.00032
     80      -0.6855      2.00056
     81      -0.6428      2.00096
     82      -0.5519      2.00276
     83      -0.5344      2.00333
     84      -0.5281      2.00356
     85      -0.4638      2.00683
     86      -0.4549      2.00743
     87      -0.4017      2.01204
     88      -0.3613      2.01683
     89      -0.2997      2.02660
     90      -0.2759      2.03118
     91      -0.2137      2.04474
     92      -0.1244      2.06413
     93      -0.0901      2.06910
     94      -0.0023      2.06386
     95       0.0411      2.04541
     96       0.0682      2.02630
     97       0.1226      1.96636
     98       0.1813      1.86400
     99       0.3127      1.48196
    100       0.3248      1.43723
    101       0.3581      1.30803
    102       0.4378      0.97688
    103       0.5095      0.67985
    104       0.5479      0.53294
    105       0.6109      0.32135
    106       0.6630      0.18136
    107       1.5930     -0.00032
    108       1.8806     -0.00000
    109       2.0553     -0.00000
    110       2.0940     -0.00000
    111       2.6522     -0.00000
    112       3.8938     -0.00000
    113       3.9266     -0.00000
    114       4.0117     -0.00000
    115       4.1159     -0.00000
    116       4.5704     -0.00000
    117       5.4114     -0.00000
    118       5.4379     -0.00000
    119       5.4747     -0.00000
    120       5.9678     -0.00000


--------------------------------------------------------------------------------------------------------


 soft charge-density along one line, spin component           1
         0         1         2         3         4         5         6         7         8         9
 total charge-density along one line
 
 pseudopotential strength for first ion, spin component:           1
 -7.985   0.000  -0.000  -0.004  -0.000  -8.054   0.000  -0.000
  0.000  -7.981   0.000   0.000  -0.004   0.000  -8.050   0.000
 -0.000   0.000  -7.991  -0.000   0.000  -0.000   0.000  -8.060
 -0.004   0.000  -0.000  -7.981  -0.000  -0.004   0.000  -0.000
 -0.000  -0.004   0.000  -0.000  -7.985  -0.000  -0.004   0.000
 -8.054   0.000  -0.000  -0.004  -0.000  -8.096   0.000  -0.000
  0.000  -8.050   0.000   0.000  -0.004   0.000  -8.092   0.000
 -0.000   0.000  -8.060  -0.000   0.000  -0.000   0.000  -8.102
 -0.004   0.000  -0.000  -8.051  -0.000  -0.004   0.000  -0.000
 -0.000  -0.004   0.000  -0.000  -8.054  -0.000  -0.004   0.000
 -0.000  -0.000   0.000  -0.000   0.000  -0.000  -0.000   0.000
 -0.000  -0.000   0.001  -0.000   0.000  -0.000  -0.000   0.001
 -0.000  -0.003   0.000   0.000  -0.000  -0.000  -0.003   0.000
  0.000  -0.000  -0.004  -0.000  -0.000   0.000  -0.000  -0.004
 -0.000   0.000   0.000  -0.003  -0.000  -0.000   0.000   0.000
 -0.000  -0.004   0.000   0.000  -0.000  -0.000  -0.004   0.000
  0.000  -0.000  -0.005  -0.000  -0.000   0.000  -0.000  -0.005
 -0.000   0.000   0.000  -0.004  -0.000  -0.000   0.000   0.000
 total augmentation occupancy for first ion, spin component:           1
  4.332   0.000   0.000   0.106   0.000  -2.336   0.000   0.000  -0.167   0.000   0.000   0.000   0.000   0.000  -0.003   0.000
  0.000   4.359   0.006   0.000   0.103   0.000  -2.297  -0.005   0.000  -0.165  -0.002  -0.000  -0.008   0.001   0.000  -0.001
  0.000   0.006   4.273   0.000   0.005   0.000  -0.005  -2.350   0.000  -0.003  -0.017  -0.002   0.001   0.006   0.000  -0.000
  0.106   0.000   0.000   4.354   0.000  -0.167   0.000   0.000  -2.294   0.000   0.000   0.000   0.000   0.000  -0.008   0.000
  0.000   0.103   0.005   0.000   4.326   0.000  -0.165  -0.003   0.000  -2.332  -0.001   0.000  -0.003  -0.001   0.000   0.000
 -2.336   0.000   0.000  -0.167   0.000   2.287   0.000   0.000   0.220   0.000   0.000   0.000   0.000   0.000   0.001   0.000
  0.000  -2.297  -0.005   0.000  -0.165   0.000   2.192   0.004   0.000   0.218   0.002  -0.000   0.004  -0.001   0.000   0.000
  0.000  -0.005  -2.350   0.000  -0.003   0.000   0.004   2.361   0.000   0.003   0.010   0.004  -0.000  -0.006   0.000   0.000
 -0.167   0.000   0.000  -2.294   0.000   0.220   0.000   0.000   2.189   0.000   0.000   0.000   0.000   0.000   0.003   0.000
  0.000  -0.165  -0.003   0.000  -2.332   0.000   0.218   0.003   0.000   2.284   0.001  -0.000   0.002   0.000   0.000  -0.000
  0.000  -0.002  -0.017   0.000  -0.001   0.000   0.002   0.010   0.000   0.001   2.487  -0.509  -0.000  -0.009   0.000   0.000
  0.000  -0.000  -0.002   0.000   0.000   0.000  -0.000   0.004   0.000  -0.000  -0.509   0.109   0.000   0.002   0.000  -0.000
  0.000  -0.008   0.001   0.000  -0.003   0.000   0.004  -0.000   0.000   0.002  -0.000   0.000   0.212   0.000   0.000  -0.013
  0.000   0.001   0.006   0.000  -0.001   0.000  -0.001  -0.006   0.000   0.000  -0.009   0.002   0.000   0.212   0.000  -0.000
 -0.003   0.000   0.000  -0.008   0.000   0.001   0.000   0.000   0.003   0.000   0.000   0.000   0.000   0.000   0.212   0.000
  0.000  -0.001  -0.000   0.000   0.000   0.000   0.000   0.000   0.000  -0.000   0.000  -0.000  -0.013  -0.000   0.000   0.001
  0.000  -0.000  -0.002   0.000   0.000   0.000   0.000   0.001   0.000  -0.000   0.000  -0.000  -0.000  -0.013   0.000   0.000
  0.000   0.000   0.000  -0.001   0.000  -0.000   0.000   0.000   0.000   0.000   0.000   0.000   0.000   0.000  -0.013   0.000


------------------------ aborting loop because EDIFF is reached ----------------------------------------


 


 total charge     
 
# of ion       s       p       d       tot
------------------------------------------
    1        0.432   0.363   9.165   9.961
    2        0.455   0.329   8.476   9.260
    3        0.455   0.329   8.475   9.259
    4        0.455   0.329   8.476   9.260
    5        0.450   0.324   8.483   9.256
    6        0.471   0.450   8.441   9.362
    7        0.472   0.449   8.436   9.357
    8        0.468   0.450   8.442   9.360
    9        0.478   0.450   8.437   9.365
   10        0.469   0.437   8.464   9.370
   11        0.474   0.444   8.454   9.373
   12        0.474   0.444   8.453   9.371
   13        0.463   0.431   8.461   9.355
   14        0.461   0.432   8.477   9.371
   15        0.463   0.429   8.475   9.367
   16        0.450   0.317   8.497   9.263
   17        0.449   0.317   8.493   9.259
   18        0.450   0.317   8.494   9.260
   19        0.453   0.322   8.482   9.257
   20        0.425   0.405   7.299   8.129
--------------------------------------------------
tot          9.166   7.767 168.881 185.814
 
    CHARGE:  cpu time    0.4452: real time    0.4453
    FORLOC:  cpu time    0.0037: real time    0.0037
    FORNL :  cpu time    1.7443: real time    1.7443
    STRESS:  cpu time    5.2467: real time    5.2468
    FORCOR:  cpu time    0.0200: real time    0.0200
    FORHAR:  cpu time    0.0070: real time    0.0070
    MIXING:  cpu time    0.0038: real time    0.0038
    OFIELD:  cpu time    0.0000: real time    0.0000

  FORCE on cell =-STRESS in cart. coord.  units (eV):
  Direction    XX          YY          ZZ          XY          YZ          ZX
  --------------------------------------------------------------------------------------
  Alpha Z   335.40303   335.40303   335.40303
  Ewald  118614.69273118614.59407************     0.00000    -0.14264     0.00000
  Hartree122762.80859122762.74910************     0.00000    -0.07017    -0.00000
  E(xc)   -1041.28890 -1041.29778 -1046.02119     0.00002    -0.01580     0.00000
  Local  ************************247467.79382     0.00149    -0.03258    -0.00010
  n-local   -88.34464   -88.39433  -106.58463     2.63725    -0.01701    -0.21996
  augment  1479.15708  1479.23541  1502.93129    -0.00097     0.12201     0.00003
  Kinetic  2687.83082  2687.89110  2731.55365     2.04007     0.18784    -0.49239
  Fock        0.00000     0.00000     0.00000     0.00000     0.00000     0.00000
  -------------------------------------------------------------------------------------
  Total      -9.01244    -9.04691    -2.30760     0.00000     0.03165     0.00000
  in kB     -18.45531   -18.52590    -4.72540     0.00000     0.06482     0.00000
  external pressure =      -13.90 kB  Pullay stress =        0.00 kB


 VOLUME and BASIS-vectors are now :
 -----------------------------------------------------------------------------
  energy-cutoff  :      350.00
  volume of cell :      782.41
      direct lattice vectors                 reciprocal lattice vectors
     5.572001436  0.000000000  0.000000000     0.179468726 -0.103616317  0.000000000
     2.786000718  4.825494793  0.000000000     0.000000000  0.207232635  0.000000000
     0.000000000  0.000000000 29.099040242     0.000000000  0.000000000  0.034365395

  length of vectors
     5.572001436  5.572001436 29.099040242     0.207232635  0.207232635  0.034365395


 FORCES acting on ions
    electron-ion (+dipol)            ewald-force                    non-local-force                 convergence-correction
 -----------------------------------------------------------------------------------------------
   -.411E-06 0.350E+00 -.178E+04   -.361E-11 -.345E+00 0.178E+04   0.000E+00 -.891E-03 -.352E-02   -.109E-08 0.501E-04 -.729E-02
   -.497E+01 -.283E+01 0.326E+04   0.516E+01 0.298E+01 -.326E+04   -.730E-01 -.751E-01 -.261E+01   0.233E-03 0.205E-03 0.498E-02
   0.497E+01 -.283E+01 0.326E+04   -.516E+01 0.298E+01 -.326E+04   0.730E-01 -.751E-01 -.261E+01   -.233E-03 0.205E-03 0.498E-02
   0.202E-06 0.570E+01 0.326E+04   -.131E-11 -.596E+01 -.326E+04   -.694E-17 0.119E+00 -.262E+01   -.287E-08 -.338E-03 0.489E-02
   0.240E-07 -.420E-01 0.327E+04   -.828E-12 -.466E-12 -.326E+04   0.000E+00 0.329E-01 -.247E+01   0.745E-09 -.710E-04 0.466E-02
   -.276E+00 -.169E+00 0.166E+04   0.272E+00 0.157E+00 -.166E+04   0.107E-01 -.126E-03 -.766E-01   -.799E-03 0.232E-03 0.515E-02
   0.276E+00 -.169E+00 0.166E+04   -.272E+00 0.157E+00 -.166E+04   -.107E-01 -.126E-03 -.766E-01   0.799E-03 0.232E-03 0.515E-02
   -.436E-06 0.761E-02 0.166E+04   -.468E-13 -.322E-13 -.166E+04   -.163E-17 0.195E-02 -.252E-01   -.474E-09 -.694E-03 0.535E-02
   0.588E-06 -.577E+01 0.535E+02   0.400E-11 0.596E+01 -.536E+02   0.000E+00 -.490E-01 -.334E-01   0.147E-08 0.450E-03 -.314E-02
   0.668E-06 -.579E+01 0.536E+02   0.262E-11 0.600E+01 -.537E+02   -.347E-17 -.886E-01 -.204E-01   -.118E-08 -.271E-04 -.273E-02
   -.256E-01 0.578E+01 0.587E+02   0.297E-01 -.598E+01 -.591E+02   -.196E-01 0.709E-01 0.829E-01   -.409E-03 -.211E-03 -.311E-02
   0.257E-01 0.578E+01 0.587E+02   -.297E-01 -.598E+01 -.591E+02   0.196E-01 0.709E-01 0.829E-01   0.409E-03 -.211E-03 -.311E-02
   -.282E+00 -.157E+00 -.162E+04   0.272E+00 0.157E+00 0.162E+04   0.135E-01 -.113E-01 0.136E+00   -.159E-03 0.468E-04 -.643E-02
   0.282E+00 -.157E+00 -.162E+04   -.272E+00 0.157E+00 0.162E+04   -.135E-01 -.113E-01 0.136E+00   0.159E-03 0.468E-04 -.643E-02
   -.192E-06 -.442E-02 -.162E+04   -.323E-11 -.188E-11 0.162E+04   0.867E-18 0.213E-01 0.158E+00   0.366E-09 -.138E-03 -.638E-02
   -.494E+01 -.280E+01 -.328E+04   0.512E+01 0.296E+01 0.328E+04   -.101E+00 -.902E-01 0.247E+01   -.886E-04 -.228E-04 -.263E-02
   0.494E+01 -.280E+01 -.328E+04   -.512E+01 0.296E+01 0.328E+04   0.101E+00 -.902E-01 0.247E+01   0.886E-04 -.228E-04 -.263E-02
   -.251E-06 0.566E+01 -.328E+04   0.767E-12 -.591E+01 0.328E+04   0.000E+00 0.146E+00 0.248E+01   0.427E-08 0.738E-04 -.263E-02
   -.554E-06 -.522E-01 -.328E+04   0.128E-11 0.775E-12 0.327E+04   -.173E-17 0.313E-01 0.261E+01   -.912E-09 -.272E-04 -.256E-02
   0.545E-06 0.299E+00 0.150E+04   -.655E-13 -.282E+00 -.150E+04   -.108E-17 -.474E-02 -.178E+00   0.114E-09 0.201E-03 0.413E-02
 -----------------------------------------------------------------------------------------------
   -.103E-05 0.220E-02 0.136E+00   0.172E-12 -.111E-15 0.682E-12   -.306E-16 -.217E-02 -.114E+00   0.551E-09 -.198E-04 -.977E-02
 
 
 POSITION                                       TOTAL-FORCE (eV/Angst)
 -----------------------------------------------------------------------------------
      6.96500      4.02125     16.81912        -0.000000      0.004186      0.092090
      5.57200      1.60850     10.00000         0.117942      0.075776      0.116140
      2.78600      1.60850     10.00000        -0.117942      0.075776      0.116140
      6.96500      4.02125     10.00000        -0.000000     -0.146224      0.117767
      4.17900      4.02125     10.00000        -0.000000     -0.009140     -0.030930
      0.00000      0.00000     12.27476         0.005899     -0.011503      0.099797
      2.78600      0.00000     12.27476        -0.005899     -0.011503      0.099797
      4.17900      2.41275     12.27476        -0.000000      0.008863     -0.052651
      1.39300      0.80425     14.54918         0.000000      0.149302     -0.147684
      4.17900      0.80425     14.54918        -0.000000      0.116980     -0.125474
      2.78600      3.21700     14.54918        -0.015966     -0.130599     -0.302035
      5.57200      3.21700     14.54918         0.015966     -0.130599     -0.302035
      5.57200      1.60850     16.81912         0.003103     -0.011684      0.009441
      2.78600      1.60850     16.81912        -0.003103     -0.011684      0.009441
      4.17900      4.02125     16.81912         0.000000      0.016703     -0.053428
      0.00000      0.00000     19.10025         0.074187      0.065503      0.106612
      2.78600      0.00000     19.10025        -0.074187      0.065503      0.106612
      1.39300      2.41275     19.10025        -0.000000     -0.106813      0.099945
      4.17900      2.41275     19.10025         0.000000     -0.020897     -0.001150
      1.39300      2.41275     12.27476        -0.000000      0.012054      0.041604
 -----------------------------------------------------------------------------------
    total drift:                               -0.000001      0.000011      0.011937


--------------------------------------------------------------------------------------------------------



  FREE ENERGIE OF THE ION-ELECTRON SYSTEM (eV)
  ---------------------------------------------------
  free  energy   TOTEN  =       -99.35472202 eV

  energy  without entropy=      -99.04029785  energy(sigma->0) =      -99.24991396
 


--------------------------------------------------------------------------------------------------------


    POTLOK:  cpu time    0.0195: real time    0.0195


--------------------------------------------------------------------------------------------------------


     LOOP+:  cpu time  396.8391: real time  396.8771
    4ORBIT:  cpu time    0.0000: real time    0.0000
 


 total charge     
 
# of ion       s       p       d       tot
------------------------------------------
    1        0.432   0.363   9.165   9.961
    2        0.455   0.329   8.476   9.260
    3        0.455   0.329   8.475   9.259
    4        0.455   0.329   8.476   9.260
    5        0.450   0.324   8.483   9.256
    6        0.471   0.450   8.441   9.362
    7        0.472   0.449   8.436   9.357
    8        0.468   0.450   8.442   9.360
    9        0.478   0.450   8.437   9.365
   10        0.469   0.437   8.464   9.370
   11        0.474   0.444   8.454   9.373
   12        0.474   0.444   8.453   9.371
   13        0.463   0.431   8.461   9.355
   14        0.461   0.432   8.477   9.371
   15        0.463   0.429   8.475   9.367
   16        0.450   0.317   8.497   9.263
   17        0.449   0.317   8.493   9.259
   18        0.450   0.317   8.494   9.260
   19        0.453   0.322   8.482   9.257
   20        0.425   0.405   7.299   8.129
--------------------------------------------------
tot          9.166   7.767 168.881 185.814
 

 total amount of memory used by VASP MPI-rank0    79321. kBytes
=======================================================================

   base      :      30000. kBytes
   nonlr-proj:       1756. kBytes
   fftplans  :       1543. kBytes
   grid      :       2646. kBytes
   one-center:         46. kBytes
   wavefun   :      43330. kBytes
 
  
  
 General timing and accounting informations for this job:
 ========================================================
  
                  Total CPU time used (sec):      404.352
                            User time (sec):      377.118
                          System time (sec):       27.234
                         Elapsed time (sec):      404.698
  
                   Maximum memory used (kb):      120860.
                   Average memory used (kb):           0.
  
                          Minor page faults:        72208
                          Major page faults:           13
                 Voluntary context switches:          786
