 vasp.5.4.4.18Apr17-6-g9f103f2a35 (build Apr 28 2017 10:53:45) complex          
  
 executed on             LinuxIFC date 2019.07.18  16:30:12
 running on   16 total cores
 distrk:  each k-point on   16 cores,    1 groups
 distr:  one band on NCORES_PER_BAND=   4 cores,    4 groups


--------------------------------------------------------------------------------------------------------


 INCAR:
 POTCAR:    PAW_PBE Au 04Oct2007                  
 POTCAR:    PAW_PBE C 08Apr2002                   
 POTCAR:    PAW_PBE H 15Jun2001                   
 POTCAR:    PAW_PBE Ir 06Sep2000                  
 POTCAR:    PAW_PBE Pt 04Feb2005                  
 POTCAR:    PAW_PBE Au 04Oct2007                  
   VRHFIN =Au: s1d10                                                            
   LEXCH  = PE                                                                  
   EATOM  =   926.0867 eV,   68.0654 Ry                                         
                                                                                
   TITEL  = PAW_PBE Au 04Oct2007                                                
   LULTRA =        F    use ultrasoft PP ?                                      
   IUNSCR =        1    unscreen: 0-lin 1-nonlin 2-no                           
   RPACOR =    2.330    partial core radius                                     
   POMASS =  196.966; ZVAL   =   11.000    mass and valenz                      
   RCORE  =    2.500    outmost cutoff radius                                   
   RWIGS  =    2.840; RWIGS  =    1.503    wigner-seitz radius (au A)           
   ENMAX  =  229.943; ENMIN  =  172.457 eV                                      
   ICORE  =        3    local potential                                         
   LCOR   =        T    correct aug charges                                     
   LPAW   =        T    paw PP                                                  
   EAUG   =  356.670                                                            
   DEXC   =    0.000                                                            
   RMAX   =    2.562    core radius for proj-oper                               
   RAUG   =    1.300    factor for augmentation sphere                          
   RDEP   =    2.598    radius for radial grids                                 
   RDEPT  =    2.193    core radius for aug-charge                              
                                                                                
   Atomic configuration                                                         
   16 entries                                                                   
     n  l   j            E        occ.                                          
     1  0  0.50    -80748.5001   2.0000                                         
     2  0  0.50    -14244.7466   2.0000                                         
     2  1  1.50    -12310.9591   6.0000                                         
     3  0  0.50     -3362.1768   2.0000                                         
     3  1  1.50     -2801.5463   6.0000                                         
     3  2  2.50     -2203.8206  10.0000                                         
     4  0  0.50      -729.8168   2.0000                                         
     4  1  1.50      -546.0527   6.0000                                         
     4  2  2.50      -325.7302  10.0000                                         
     4  3  3.50       -81.1472  14.0000                                         
     5  0  0.50      -108.3201   2.0000                                         
     5  1  1.50       -59.7479   6.0000                                         
     5  2  2.50        -6.8783  10.0000                                         
     6  0  0.50        -5.7602   1.0000                                         
     6  1  1.50        -6.8029   0.0000                                         
     5  3  2.50        -1.3606   0.0000                                         
   Description                                                                  
     l       E           TYP  RCUT    TYP  RCUT                                 
     2     -6.8782861     23  2.500                                             
     2     -8.2388687     23  2.500                                             
     0     -5.7601759     23  2.500                                             
     0     -0.8493231     23  2.500                                             
     1     -2.7211652     23  2.500                                             
     1     27.2116520     23  2.500                                             
     3     -1.3605826     23  2.500                                             
  local pseudopotential read in
  partial core-charges read in
  partial kinetic energy density read in
  atomic valenz-charges read in
  non local Contribution for L=           2  read in
    real space projection operators read in
  non local Contribution for L=           2  read in
    real space projection operators read in
  non local Contribution for L=           0  read in
    real space projection operators read in
  non local Contribution for L=           0  read in
    real space projection operators read in
  non local Contribution for L=           1  read in
    real space projection operators read in
  non local Contribution for L=           1  read in
    real space projection operators read in
    PAW grid and wavefunctions read in
 
   number of l-projection  operators is LMAX  =           6
   number of lm-projection operators is LMMAX =          18
 
 POTCAR:    PAW_PBE C 08Apr2002                   
   VRHFIN =C: s2p2                                                              
   LEXCH  = PE                                                                  
   EATOM  =   147.1560 eV,   10.8157 Ry                                         
                                                                                
   TITEL  = PAW_PBE C 08Apr2002                                                 
   LULTRA =        F    use ultrasoft PP ?                                      
   IUNSCR =        1    unscreen: 0-lin 1-nonlin 2-no                           
   RPACOR =    1.200    partial core radius                                     
   POMASS =   12.011; ZVAL   =    4.000    mass and valenz                      
   RCORE  =    1.500    outmost cutoff radius                                   
   RWIGS  =    1.630; RWIGS  =    0.863    wigner-seitz radius (au A)           
   ENMAX  =  400.000; ENMIN  =  300.000 eV                                      
   ICORE  =        2    local potential                                         
   LCOR   =        T    correct aug charges                                     
   LPAW   =        T    paw PP                                                  
   EAUG   =  644.873                                                            
   DEXC   =    0.000                                                            
   RMAX   =    1.529    core radius for proj-oper                               
   RAUG   =    1.300    factor for augmentation sphere                          
   RDEP   =    1.501    radius for radial grids                                 
   RDEPT  =    1.300    core radius for aug-charge                              
                                                                                
   Atomic configuration                                                         
    4 entries                                                                   
     n  l   j            E        occ.                                          
     1  0  0.50      -273.3789   2.0000                                         
     2  0  0.50       -13.7508   2.0000                                         
     2  1  0.50        -5.2854   2.0000                                         
     3  2  1.50        -5.4423   0.0000                                         
   Description                                                                  
     l       E           TYP  RCUT    TYP  RCUT                                 
     0    -13.7508458     23  1.200                                             
     0     -8.2022199     23  1.200                                             
     1     -5.2854383     23  1.500                                             
     1     34.0145650     23  1.500                                             
     2     -5.4423304      7  1.500                                             
  local pseudopotential read in
  partial core-charges read in
  partial kinetic energy density read in
  atomic valenz-charges read in
  non local Contribution for L=           0  read in
    real space projection operators read in
  non local Contribution for L=           0  read in
    real space projection operators read in
  non local Contribution for L=           1  read in
    real space projection operators read in
  non local Contribution for L=           1  read in
    real space projection operators read in
    PAW grid and wavefunctions read in
 
   number of l-projection  operators is LMAX  =           4
   number of lm-projection operators is LMMAX =           8
 
 POTCAR:    PAW_PBE H 15Jun2001                   
   VRHFIN =H: ultrasoft test                                                    
   LEXCH  = PE                                                                  
   EATOM  =    12.4884 eV,    0.9179 Ry                                         
                                                                                
   TITEL  = PAW_PBE H 15Jun2001                                                 
   LULTRA =        F    use ultrasoft PP ?                                      
   IUNSCR =        0    unscreen: 0-lin 1-nonlin 2-no                           
   RPACOR =    0.000    partial core radius                                     
   POMASS =    1.000; ZVAL   =    1.000    mass and valenz                      
   RCORE  =    1.100    outmost cutoff radius                                   
   RWIGS  =    0.700; RWIGS  =    0.370    wigner-seitz radius (au A)           
   ENMAX  =  250.000; ENMIN  =  200.000 eV                                      
   RCLOC  =    0.701    cutoff for local pot                                    
   LCOR   =        T    correct aug charges                                     
   LPAW   =        T    paw PP                                                  
   EAUG   =  400.000                                                            
   RMAX   =    1.123    core radius for proj-oper                               
   RAUG   =    1.200    factor for augmentation sphere                          
   RDEP   =    1.112    radius for radial grids                                 
   RDEPT  =    0.926    core radius for aug-charge                              
                                                                                
   Atomic configuration                                                         
    2 entries                                                                   
     n  l   j            E        occ.                                          
     1  0  0.50        -6.4927   1.0000                                         
     2  1  0.50        -3.4015   0.0000                                         
   Description                                                                  
     l       E           TYP  RCUT    TYP  RCUT                                 
     0     -6.4927494     23  1.100                                             
     0      6.8029130     23  1.100                                             
     1     -4.0817478     23  1.100                                             
  local pseudopotential read in
  atomic valenz-charges read in
  non local Contribution for L=           0  read in
    real space projection operators read in
  non local Contribution for L=           0  read in
    real space projection operators read in
  non local Contribution for L=           1  read in
    real space projection operators read in
    PAW grid and wavefunctions read in
 
   number of l-projection  operators is LMAX  =           3
   number of lm-projection operators is LMMAX =           5
 
 POTCAR:    PAW_PBE Ir 06Sep2000                  
   VRHFIN =Ir: s1d8                                                             
   LEXCH  = PE                                                                  
   EATOM  =   560.1833 eV,   41.1723 Ry                                         
                                                                                
   TITEL  = PAW_PBE Ir 06Sep2000                                                
   LULTRA =        F    use ultrasoft PP ?                                      
   IUNSCR =        1    unscreen: 0-lin 1-nonlin 2-no                           
   RPACOR =    2.250    partial core radius                                     
   POMASS =  192.220; ZVAL   =    9.000    mass and valenz                      
   RCORE  =    2.600    outmost cutoff radius                                   
   RWIGS  =    2.690; RWIGS  =    1.423    wigner-seitz radius (au A)           
   ENMAX  =  210.864; ENMIN  =  158.148 eV                                      
   RCLOC  =    1.857    cutoff for local pot                                    
   LCOR   =        T    correct aug charges                                     
   LPAW   =        T    paw PP                                                  
   EAUG   =  318.962                                                            
   DEXC   =    0.000                                                            
   RMAX   =    2.667    core radius for proj-oper                               
   RAUG   =    1.300    factor for augmentation sphere                          
   RDEP   =    2.748    radius for radial grids                                 
   RDEPT  =    2.300    core radius for aug-charge                              
                                                                                
   Atomic configuration                                                         
   16 entries                                                                   
     n  l   j            E        occ.                                          
     1  0  0.50    -76100.0449   2.0000                                         
     2  0  0.50    -13308.1683   2.0000                                         
     2  1  1.50    -11558.0021   6.0000                                         
     3  0  0.50     -3110.7274   2.0000                                         
     3  1  1.50     -2599.2109   6.0000                                         
     3  2  2.50     -2037.1515  10.0000                                         
     4  0  0.50      -661.6001   2.0000                                         
     4  1  1.50      -493.8981   6.0000                                         
     4  2  2.50      -288.1909  10.0000                                         
     4  3  3.50       -59.5718  14.0000                                         
     5  0  0.50       -95.3879   2.0000                                         
     5  1  1.50       -52.2747   6.0000                                         
     5  2  2.50        -5.4180   8.0000                                         
     6  0  0.50        -5.5479   1.0000                                         
     6  1  1.50        -6.8029   0.0000                                         
     5  3  2.50        -1.3606   0.0000                                         
   Description                                                                  
     l       E           TYP  RCUT    TYP  RCUT                                 
     2     -5.4179967     23  2.600                                             
     2     -6.7785793     23  2.600                                             
     0     -5.5478636     23  2.600                                             
     0      2.2542272     23  2.600                                             
     1     -2.7211652     23  2.600                                             
     1     20.4087390     23  2.600                                             
  local pseudopotential read in
  partial core-charges read in
  partial kinetic energy density read in
  atomic valenz-charges read in
  non local Contribution for L=           2  read in
    real space projection operators read in
  non local Contribution for L=           2  read in
    real space projection operators read in
  non local Contribution for L=           0  read in
    real space projection operators read in
  non local Contribution for L=           0  read in
    real space projection operators read in
  non local Contribution for L=           1  read in
    real space projection operators read in
  non local Contribution for L=           1  read in
    real space projection operators read in
    PAW grid and wavefunctions read in
 
   number of l-projection  operators is LMAX  =           6
   number of lm-projection operators is LMMAX =          18
 
 POTCAR:    PAW_PBE Pt 04Feb2005                  
   VRHFIN =Pt: s1d9                                                             
   LEXCH  = PE                                                                  
   EATOM  =   729.1176 eV,   53.5886 Ry                                         
                                                                                
   TITEL  = PAW_PBE Pt 04Feb2005                                                
   LULTRA =        F    use ultrasoft PP ?                                      
   IUNSCR =        1    unscreen: 0-lin 1-nonlin 2-no                           
   RPACOR =    2.330    partial core radius                                     
   POMASS =  195.080; ZVAL   =   10.000    mass and valenz                      
   RCORE  =    2.600    outmost cutoff radius                                   
   RWIGS  =    2.750; RWIGS  =    1.455    wigner-seitz radius (au A)           
   ENMAX  =  230.283; ENMIN  =  172.712 eV                                      
   ICORE  =        3    local potential                                         
   LCOR   =        T    correct aug charges                                     
   LPAW   =        T    paw PP                                                  
   EAUG   =  358.966                                                            
   DEXC   =    0.000                                                            
   RMAX   =    2.658    core radius for proj-oper                               
   RAUG   =    1.300    factor for augmentation sphere                          
   RDEP   =    2.761    radius for radial grids                                 
   RDEPT  =    2.203    core radius for aug-charge                              
                                                                                
   Atomic configuration                                                         
   16 entries                                                                   
     n  l   j            E        occ.                                          
     1  0  0.50    -78401.1885   2.0000                                         
     2  0  0.50    -13770.7750   2.0000                                         
     2  1  1.50    -11931.0468   6.0000                                         
     3  0  0.50     -3234.7234   2.0000                                         
     3  1  1.50     -2699.2216   6.0000                                         
     3  2  2.50     -2119.5714  10.0000                                         
     4  0  0.50      -695.1528   2.0000                                         
     4  1  1.50      -519.6034   6.0000                                         
     4  2  2.50      -306.6786  10.0000                                         
     4  3  3.50       -70.1041  14.0000                                         
     5  0  0.50      -101.7747   2.0000                                         
     5  1  1.50       -55.9873   6.0000                                         
     5  2  2.50        -6.1423   9.0000                                         
     6  0  0.50        -5.6573   1.0000                                         
     6  1  1.50        -6.8029   0.0000                                         
     5  3  2.50        -1.3606   0.0000                                         
   Description                                                                  
     l       E           TYP  RCUT    TYP  RCUT                                 
     2     -6.1423404     23  2.500                                             
     2     -7.5029230     23  2.500                                             
     0     -5.6573207     23  2.500                                             
     0      0.7416693     23  2.500                                             
     1     -2.7211652     23  2.600                                             
     1     20.4087390     23  2.600                                             
     3     -1.3605826     23  2.500                                             
  local pseudopotential read in
  partial core-charges read in
  partial kinetic energy density read in
  atomic valenz-charges read in
  non local Contribution for L=           2  read in
    real space projection operators read in
  non local Contribution for L=           2  read in
    real space projection operators read in
  non local Contribution for L=           0  read in
    real space projection operators read in
  non local Contribution for L=           0  read in
    real space projection operators read in
  non local Contribution for L=           1  read in
    real space projection operators read in
  non local Contribution for L=           1  read in
    real space projection operators read in
    PAW grid and wavefunctions read in
 
   number of l-projection  operators is LMAX  =           6
   number of lm-projection operators is LMMAX =          18
 
 Optimization of the real space projectors (new method)

 maximal supplied QI-value         = 15.12
 optimisation between [QCUT,QGAM] = [  9.52, 19.05] = [ 25.40,101.61] Ry 
 Optimized for a Real-space Cutoff    1.57 Angstroem

   l    n(q)    QCUT    max X(q) W(low)/X(q) W(high)/X(q)  e(spline) 
   2      8     9.524    60.898    0.38E-03    0.43E-04    0.84E-07
   2      8     9.524    58.894    0.38E-03    0.47E-04    0.88E-07
   0      9     9.524   109.617    0.60E-04    0.64E-04    0.80E-07
   0      9     9.524    75.026    0.59E-04    0.62E-04    0.78E-07
   1      8     9.524    16.344    0.99E-04    0.18E-03    0.87E-07
   1      8     9.524    10.160    0.78E-04    0.15E-03    0.74E-07
 Optimization of the real space projectors (new method)

 maximal supplied QI-value         = 25.13
 optimisation between [QCUT,QGAM] = [  9.55, 19.10] = [ 25.54,102.17] Ry 
 Optimized for a Real-space Cutoff    1.39 Angstroem

   l    n(q)    QCUT    max X(q) W(low)/X(q) W(high)/X(q)  e(spline) 
   0      8     9.551   115.676    0.39E-03    0.54E-03    0.29E-06
   0      8     9.551    87.132    0.39E-03    0.54E-03    0.28E-06
   1      7     9.551     4.429    0.35E-03    0.51E-04    0.29E-06
   1      7     9.551     2.733    0.22E-03    0.42E-04    0.31E-06
 Optimization of the real space projectors (new method)

 maximal supplied QI-value         = 34.20
 optimisation between [QCUT,QGAM] = [  9.58, 19.15] = [ 25.68,102.74] Ry 
 Optimized for a Real-space Cutoff    1.31 Angstroem

   l    n(q)    QCUT    max X(q) W(low)/X(q) W(high)/X(q)  e(spline) 
   0      7     9.577    19.460    0.33E-03    0.12E-03    0.35E-06
   0      7     9.577    12.209    0.33E-03    0.11E-03    0.33E-06
   1      7     9.577     4.655    0.39E-03    0.14E-02    0.33E-06
 Optimization of the real space projectors (new method)

 maximal supplied QI-value         = 14.36
 optimisation between [QCUT,QGAM] = [  9.48, 19.10] = [ 25.16,102.17] Ry 
 Optimized for a Real-space Cutoff    1.57 Angstroem

   l    n(q)    QCUT    max X(q) W(low)/X(q) W(high)/X(q)  e(spline) 
   2      8     9.479   134.116    0.18E-03    0.75E-03    0.26E-06
   2      8     9.479   130.192    0.18E-03    0.75E-03    0.27E-06
   0      9     9.479    60.310    0.39E-03    0.24E-03    0.63E-07
   0      9     9.479    39.218    0.36E-03    0.22E-03    0.59E-07
   1      8     9.479    18.439    0.20E-03    0.15E-03    0.16E-06
   1      8     9.479    12.760    0.16E-03    0.11E-03    0.13E-06
 Optimization of the real space projectors (new method)

 maximal supplied QI-value         = 14.36
 optimisation between [QCUT,QGAM] = [  9.48, 19.10] = [ 25.16,102.17] Ry 
 Optimized for a Real-space Cutoff    1.57 Angstroem

   l    n(q)    QCUT    max X(q) W(low)/X(q) W(high)/X(q)  e(spline) 
   2      8     9.479    66.195    0.35E-03    0.53E-04    0.87E-07
   2      8     9.479    64.643    0.35E-03    0.57E-04    0.91E-07
   0      9     9.479    95.520    0.50E-04    0.62E-04    0.81E-07
   0      9     9.479    63.403    0.49E-04    0.60E-04    0.78E-07
   1      8     9.479    19.961    0.10E-03    0.87E-04    0.11E-06
   1      8     9.479    13.289    0.88E-04    0.71E-04    0.97E-07
  PAW_PBE Au 04Oct2007                  :
 energy of atom  1       EATOM= -926.0867
 kinetic energy error for atom=    0.0152 (will be added to EATOM!!)
  PAW_PBE C 08Apr2002                   :
 energy of atom  2       EATOM= -147.1560
 kinetic energy error for atom=    0.0854 (will be added to EATOM!!)
  PAW_PBE H 15Jun2001                   :
 energy of atom  3       EATOM=  -12.4884
 kinetic energy error for atom=    0.0203 (will be added to EATOM!!)
  PAW_PBE Ir 06Sep2000                  :
 energy of atom  4       EATOM= -560.1833
 kinetic energy error for atom=    0.0056 (will be added to EATOM!!)
  PAW_PBE Pt 04Feb2005                  :
 energy of atom  5       EATOM= -729.1176
 kinetic energy error for atom=    0.0144 (will be added to EATOM!!)
 
 
 POSCAR: Au  C  H Ir Pt                          
  positions in cartesian coordinates
  No initial velocities read in
 exchange correlation table for  LEXCH =        8
   RHO(1)=    0.500       N(1)  =     2000
   RHO(2)=  100.500       N(2)  =     4000
 


--------------------------------------------------------------------------------------------------------


 ion  position               nearest neighbor table
   1  0.836  0.835  0.539-  13 2.78  11 2.78  10 2.78  10 2.78  11 2.78  13 2.78   8 2.80  20 2.80
                             9 2.81  15 2.82  16 2.82  14 2.83
   2  0.996  0.037  0.728-   5 1.10   3 1.10   4 1.10   6 1.10
   3  0.816  0.162  0.749-   2 1.10
   4  0.963  0.883  0.711-   2 1.10
   5  0.187  0.929  0.748-   2 1.10
   6  0.016  0.174  0.705-   2 1.10
   7  0.500  0.000  0.389-  18 2.78  19 2.78  21 2.78  21 2.78  19 2.78  18 2.78  12 2.82   9 2.82
                            20 2.83
   8  0.168  0.667  0.465-  20 2.78  12 2.78   9 2.78   9 2.78  12 2.78  20 2.78   1 2.80  11 2.80
                            13 2.81  18 2.82  21 2.82  19 2.83
   9  0.668  0.667  0.465-  20 2.78  12 2.78   8 2.78   8 2.78  12 2.78  20 2.78  13 2.80  10 2.80
                             1 2.81  19 2.82   7 2.82  18 2.83
  10  0.836  0.335  0.539-  13 2.78   1 2.78  11 2.78  11 2.78   1 2.78  13 2.78  12 2.80   9 2.80
                            20 2.81  14 2.82  17 2.82  16 2.83
  11  0.336  0.335  0.539-   1 2.78  13 2.78  10 2.78  10 2.78  13 2.78   1 2.78  20 2.80   8 2.80
                            12 2.81  16 2.82  15 2.82  17 2.83
  12  0.168  0.167  0.465-   9 2.78   8 2.78  20 2.78  20 2.78   8 2.78   9 2.78  10 2.80  13 2.80
                            11 2.81   7 2.82  19 2.82  21 2.83
  13  0.336  0.835  0.539-   1 2.78  10 2.78  11 2.78  11 2.78  10 2.78   1 2.78   9 2.80  12 2.80
                             8 2.81  14 2.82  17 2.82  15 2.83
  14  0.004  0.002  0.614-  17 2.78  16 2.78  15 2.78  15 2.78  16 2.78  17 2.78  13 2.82  10 2.82
                             1 2.83
  15  0.504  0.002  0.615-  17 2.78  16 2.78  14 2.78  14 2.78  16 2.78  17 2.78   1 2.82  11 2.82
                            13 2.83
  16  0.004  0.502  0.615-  17 2.78  15 2.78  14 2.78  14 2.78  15 2.78  17 2.78  11 2.82   1 2.82
                            10 2.83
  17  0.504  0.502  0.615-  16 2.78  15 2.78  14 2.78  14 2.78  15 2.78  16 2.78  10 2.82  13 2.82
                            11 2.83
  18  0.500  0.500  0.389-   7 2.78  19 2.78  21 2.78  21 2.78  19 2.78   7 2.78   8 2.82  20 2.82
                             9 2.83
  19  0.000  0.500  0.389-  18 2.78   7 2.78  21 2.78  21 2.78   7 2.78  18 2.78   9 2.82  12 2.82
                             8 2.83
  20  0.668  0.167  0.464-   8 2.78   9 2.78  12 2.78  12 2.78   9 2.78   8 2.78  11 2.80   1 2.80
                            10 2.81  21 2.82  18 2.82   7 2.83
  21  0.000  0.000  0.389-   7 2.78  18 2.78  19 2.78  19 2.78  18 2.78   7 2.78  20 2.82   8 2.82
                            12 2.83
 
  LATTYP: Found a hexagonal cell.
 ALAT       =     5.5578593001
 C/A-ratio  =     5.5429542221
  
  Lattice vectors:
  
 A1 = (   2.7789296501,  -4.8132473446,   0.0000000000)
 A2 = (  -5.5578593001,   0.0000000000,   0.0000000000)
 A3 = (   0.0000000000,   0.0000000000, -30.8069596737)


Analysis of symmetry for initial positions (statically):
=====================================================================
 Subroutine PRICEL returns:
 Original cell was already a primitive cell.
 

 Routine SETGRP: Setting up the symmetry group for a 
 hexagonal supercell.


 Subroutine GETGRP returns: Found  1 space group operations
 (whereof  1 operations were pure point group operations)
 out of a pool of 24 trial point group operations.


The static configuration has the point symmetry C_1 .


Analysis of symmetry for dynamics (positions and initial velocities):
=====================================================================
 Subroutine PRICEL returns:
 Original cell was already a primitive cell.
 

 Routine SETGRP: Setting up the symmetry group for a 
 hexagonal supercell.


 Subroutine GETGRP returns: Found  1 space group operations
 (whereof  1 operations were pure point group operations)
 out of a pool of 24 trial point group operations.


The dynamic configuration has the point symmetry C_1 .


 Subroutine INISYM returns: Found  1 space group operations
 (whereof  1 operations are pure point group operations),
 and found     1 'primitive' translations

 
 
 KPOINTS: 0.5.Ir1.Au10                            

Automatic generation of k-mesh.
Space group operators:
 irot       det(A)        alpha          n_x          n_y          n_z        tau_x        tau_y        tau_z
    1     1.000000     0.000001     1.000000     0.000000     0.000000     0.000000     0.000000     0.000000
 
 Subroutine IBZKPT returns following result:
 ===========================================
 
 Found     96 irreducible k-points:
 
 Following reciprocal coordinates:
            Coordinates               Weight
  0.062500  0.062500  0.000000     16.000000
  0.000000  0.062500  0.000000     16.000000
 -0.062500  0.000000  0.000000     16.000000
  0.187500  0.062500  0.000000     16.000000
  0.125000  0.187500  0.000000     16.000000
 -0.062500  0.125000  0.000000     16.000000
  0.125000 -0.062500  0.000000     16.000000
 -0.062500 -0.187500  0.000000     16.000000
 -0.187500 -0.125000  0.000000     16.000000
  0.312500  0.062500  0.000000     16.000000
  0.250000  0.312500  0.000000     16.000000
 -0.062500  0.250000  0.000000     16.000000
  0.250000 -0.062500  0.000000     16.000000
 -0.062500 -0.312500  0.000000     16.000000
 -0.312500 -0.250000  0.000000     16.000000
  0.437500  0.062500  0.000000     16.000000
  0.375000  0.437500  0.000000     16.000000
 -0.062500  0.375000  0.000000     16.000000
  0.375000 -0.062500  0.000000     16.000000
 -0.062500 -0.437500  0.000000     16.000000
 -0.437500 -0.375000  0.000000     16.000000
 -0.437500  0.062500  0.000000     16.000000
  0.500000 -0.437500  0.000000     16.000000
 -0.062500  0.500000  0.000000     16.000000
  0.500000 -0.062500  0.000000     16.000000
 -0.062500  0.437500  0.000000     16.000000
  0.437500  0.500000  0.000000     16.000000
 -0.312500  0.062500  0.000000     16.000000
 -0.375000 -0.312500  0.000000     16.000000
 -0.062500 -0.375000  0.000000     16.000000
 -0.375000 -0.062500  0.000000     16.000000
 -0.062500  0.312500  0.000000     16.000000
  0.312500  0.375000  0.000000     16.000000
 -0.187500  0.062500  0.000000     16.000000
 -0.250000 -0.187500  0.000000     16.000000
 -0.062500 -0.250000  0.000000     16.000000
 -0.250000 -0.062500  0.000000     16.000000
 -0.062500  0.187500  0.000000     16.000000
  0.187500  0.250000  0.000000     16.000000
 -0.062500  0.062500  0.000000     16.000000
 -0.125000 -0.062500  0.000000     16.000000
 -0.062500 -0.125000  0.000000     16.000000
  0.187500  0.187500  0.000000     16.000000
  0.000000  0.187500  0.000000     16.000000
 -0.187500  0.000000  0.000000     16.000000
  0.312500  0.187500  0.000000     16.000000
  0.125000  0.312500  0.000000     16.000000
 -0.187500  0.125000  0.000000     16.000000
  0.125000 -0.187500  0.000000     16.000000
 -0.187500 -0.312500  0.000000     16.000000
 -0.312500 -0.125000  0.000000     16.000000
  0.437500  0.187500  0.000000     16.000000
  0.250000  0.437500  0.000000     16.000000
 -0.187500  0.250000  0.000000     16.000000
  0.250000 -0.187500  0.000000     16.000000
 -0.187500 -0.437500  0.000000     16.000000
 -0.437500 -0.250000  0.000000     16.000000
 -0.437500  0.187500  0.000000     16.000000
  0.375000 -0.437500  0.000000     16.000000
 -0.187500  0.375000  0.000000     16.000000
  0.375000 -0.187500  0.000000     16.000000
 -0.187500  0.437500  0.000000     16.000000
  0.437500 -0.375000  0.000000     16.000000
 -0.312500  0.187500  0.000000     16.000000
  0.500000 -0.312500  0.000000     16.000000
 -0.187500  0.500000  0.000000     16.000000
  0.500000 -0.187500  0.000000     16.000000
 -0.187500  0.312500  0.000000     16.000000
  0.312500  0.500000  0.000000     16.000000
 -0.187500  0.187500  0.000000     16.000000
 -0.375000 -0.187500  0.000000     16.000000
 -0.187500 -0.375000  0.000000     16.000000
  0.312500  0.312500  0.000000     16.000000
  0.000000  0.312500  0.000000     16.000000
 -0.312500  0.000000  0.000000     16.000000
  0.437500  0.312500  0.000000     16.000000
  0.125000  0.437500  0.000000     16.000000
 -0.312500  0.125000  0.000000     16.000000
  0.125000 -0.312500  0.000000     16.000000
 -0.312500 -0.437500  0.000000     16.000000
 -0.437500 -0.125000  0.000000     16.000000
 -0.437500  0.312500  0.000000     16.000000
  0.250000 -0.437500  0.000000     16.000000
 -0.312500  0.250000  0.000000     16.000000
  0.250000 -0.312500  0.000000     16.000000
 -0.312500  0.437500  0.000000     16.000000
  0.437500 -0.250000  0.000000     16.000000
 -0.312500  0.312500  0.000000     16.000000
  0.375000 -0.312500  0.000000     16.000000
 -0.312500  0.375000  0.000000     16.000000
  0.437500  0.437500  0.000000     16.000000
  0.000000  0.437500  0.000000     16.000000
 -0.437500 -0.000000  0.000000     16.000000
 -0.437500  0.437500  0.000000     16.000000
  0.125000 -0.437500  0.000000     16.000000
 -0.437500  0.125000  0.000000     16.000000
 
 Following cartesian coordinates:
            Coordinates               Weight
  0.011245  0.006492  0.000000     16.000000
  0.000000  0.012985  0.000000     16.000000
 -0.011245  0.006492  0.000000     16.000000
  0.033736 -0.006492  0.000000     16.000000
  0.022491  0.025970  0.000000     16.000000
 -0.011245  0.032462  0.000000     16.000000
  0.022491 -0.025970  0.000000     16.000000
 -0.011245 -0.032462  0.000000     16.000000
 -0.033736 -0.006492  0.000000     16.000000
  0.056227 -0.019477  0.000000     16.000000
  0.044981  0.038955  0.000000     16.000000
 -0.011245  0.058432  0.000000     16.000000
  0.044981 -0.038955  0.000000     16.000000
 -0.011245 -0.058432  0.000000     16.000000
 -0.056227 -0.019477  0.000000     16.000000
  0.078717 -0.032462  0.000000     16.000000
  0.067472  0.051940  0.000000     16.000000
 -0.011245  0.084402  0.000000     16.000000
  0.067472 -0.051940  0.000000     16.000000
 -0.011245 -0.084402  0.000000     16.000000
 -0.078717 -0.032462  0.000000     16.000000
 -0.078717  0.058432  0.000000     16.000000
  0.089963 -0.142835  0.000000     16.000000
 -0.011245  0.110372  0.000000     16.000000
  0.089963 -0.064925  0.000000     16.000000
 -0.011245  0.097387  0.000000     16.000000
  0.078717  0.058432  0.000000     16.000000
 -0.056227  0.045447  0.000000     16.000000
 -0.067472 -0.025970  0.000000     16.000000
 -0.011245 -0.071417  0.000000     16.000000
 -0.067472  0.025970  0.000000     16.000000
 -0.011245  0.071417  0.000000     16.000000
  0.056227  0.045447  0.000000     16.000000
 -0.033736  0.032462  0.000000     16.000000
 -0.044981 -0.012985  0.000000     16.000000
 -0.011245 -0.045447  0.000000     16.000000
 -0.044981  0.012985  0.000000     16.000000
 -0.011245  0.045447  0.000000     16.000000
  0.033736  0.032462  0.000000     16.000000
 -0.011245  0.019477  0.000000     16.000000
 -0.022491  0.000000  0.000000     16.000000
 -0.011245 -0.019477  0.000000     16.000000
  0.033736  0.019477  0.000000     16.000000
  0.000000  0.038955  0.000000     16.000000
 -0.033736  0.019477  0.000000     16.000000
  0.056227  0.006492  0.000000     16.000000
  0.022491  0.051940  0.000000     16.000000
 -0.033736  0.045447  0.000000     16.000000
  0.022491 -0.051940  0.000000     16.000000
 -0.033736 -0.045447  0.000000     16.000000
 -0.056227  0.006492  0.000000     16.000000
  0.078717 -0.006492  0.000000     16.000000
  0.044981  0.064925  0.000000     16.000000
 -0.033736  0.071417  0.000000     16.000000
  0.044981 -0.064925  0.000000     16.000000
 -0.033736 -0.071417  0.000000     16.000000
 -0.078717 -0.006492  0.000000     16.000000
 -0.078717  0.084402  0.000000     16.000000
  0.067472 -0.129850  0.000000     16.000000
 -0.033736  0.097387  0.000000     16.000000
  0.067472 -0.077910  0.000000     16.000000
 -0.033736  0.110372  0.000000     16.000000
  0.078717 -0.123357  0.000000     16.000000
 -0.056227  0.071417  0.000000     16.000000
  0.089963 -0.116865  0.000000     16.000000
 -0.033736  0.123357  0.000000     16.000000
  0.089963 -0.090895  0.000000     16.000000
 -0.033736  0.084402  0.000000     16.000000
  0.056227  0.071417  0.000000     16.000000
 -0.033736  0.058432  0.000000     16.000000
 -0.067472  0.000000  0.000000     16.000000
 -0.033736 -0.058432  0.000000     16.000000
  0.056227  0.032462  0.000000     16.000000
  0.000000  0.064925  0.000000     16.000000
 -0.056227  0.032462  0.000000     16.000000
  0.078717  0.019477  0.000000     16.000000
  0.022491  0.077910  0.000000     16.000000
 -0.056227  0.058432  0.000000     16.000000
  0.022491 -0.077910  0.000000     16.000000
 -0.056227 -0.058432  0.000000     16.000000
 -0.078717  0.019477  0.000000     16.000000
 -0.078717  0.110372  0.000000     16.000000
  0.044981 -0.116865  0.000000     16.000000
 -0.056227  0.084402  0.000000     16.000000
  0.044981 -0.090895  0.000000     16.000000
 -0.056227  0.123357  0.000000     16.000000
  0.078717 -0.097387  0.000000     16.000000
 -0.056227  0.097387  0.000000     16.000000
  0.067472 -0.103880  0.000000     16.000000
 -0.056227  0.110372  0.000000     16.000000
  0.078717  0.045447  0.000000     16.000000
  0.000000  0.090895  0.000000     16.000000
 -0.078717  0.045447  0.000000     16.000000
 -0.078717  0.136342  0.000000     16.000000
  0.022491 -0.103880  0.000000     16.000000
 -0.078717  0.071417  0.000000     16.000000
 


--------------------------------------------------------------------------------------------------------




 Dimension of arrays:
   k-points           NKPTS =     96   k-points in BZ     NKDIM =     96   number of bands    NBANDS=    100
   number of dos      NEDOS =    301   number of ions     NIONS =     21
   non local maximal  LDIM  =      6   non local SUM 2l+1 LMDIM =     18
   total plane-waves  NPLWV = 112896
   max r-space proj   IRMAX =   2252   max aug-charges    IRDMAX=  10104
   dimension x,y,z NGX =    28 NGY =   28 NGZ =  144
   dimension x,y,z NGXF=    56 NGYF=   56 NGZF=  288
   support grid    NGXF=    56 NGYF=   56 NGZF=  288
   ions per type =               1   1   4   1  14
   NGX,Y,Z   is equivalent  to a cutoff of   8.38,  8.38,  7.77 a.u.
   NGXF,Y,Z  is equivalent  to a cutoff of  16.75, 16.75, 15.54 a.u.

 SYSTEM =  0.5.Ir1.Au10                            
 POSCAR =  Au  C  H Ir Pt                          

 Startparameter for this run:
   NWRITE =      2    write-flag & timer
   PREC   = normal    normal or accurate (medium, high low for compatibility)
   ISTART =      0    job   : 0-new  1-cont  2-samecut
   ICHARG =      2    charge: 1-file 2-atom 10-const
   ISPIN  =      1    spin polarized calculation?
   LNONCOLLINEAR =      F non collinear calculations
   LSORBIT =      F    spin-orbit coupling
   INIWAV =      1    electr: 0-lowe 1-rand  2-diag
   LASPH  =      F    aspherical Exc in radial PAW
   METAGGA=      F    non-selfconsistent MetaGGA calc.

 Electronic Relaxation 1
   ENCUT  =  350.0 eV  25.72 Ry    5.07 a.u.   8.48  8.48 46.99*2*pi/ulx,y,z
   ENINI  =  350.0     initial cutoff
   ENAUG  =  644.9 eV  augmentation charge cutoff
   NELM   =   1000;   NELMIN=  5; NELMDL= -5     # of ELM steps 
   EDIFF  = 0.1E-04   stopping-criterion for ELM
   LREAL  =      T    real-space projection
   NLSPLINE    = F    spline interpolate recip. space projectors
   LCOMPAT=      F    compatible to vasp.4.4
   GGA_COMPAT  = T    GGA compatible to vasp.4.4-vasp.4.6
   LMAXPAW     = -100 max onsite density
   LMAXMIX     =    2 max onsite mixed and CHGCAR
   VOSKOWN=      0    Vosko Wilk Nusair interpolation
   ROPT   =   -0.00050  -0.00050  -0.00050  -0.00050
   ROPT   =   -0.00050
 Ionic relaxation
   EDIFFG = 0.1E-03   stopping-criterion for IOM
   NSW    =      0    number of steps for IOM
   NBLOCK =      1;   KBLOCK =      1    inner block; outer block 
   IBRION =     -1    ionic relax: 0-MD 1-quasi-New 2-CG
   NFREE  =      0    steps in history (QN), initial steepest desc. (CG)
   ISIF   =      2    stress and relaxation
   IWAVPR =     10    prediction:  0-non 1-charg 2-wave 3-comb
   ISYM   =      2    0-nonsym 1-usesym 2-fastsym
   LCORR  =      T    Harris-Foulkes like correction to forces

   POTIM  = 0.5000    time-step for ionic-motion
   TEIN   =    0.0    initial temperature
   TEBEG  =    0.0;   TEEND  =   0.0 temperature during run
   SMASS  =  -3.00    Nose mass-parameter (am)
   estimated Nose-frequenzy (Omega)   =  0.10E-29 period in steps =****** mass=  -0.706E-27a.u.
   SCALEE = 1.0000    scale energy and forces
   NPACO  =    256;   APACO  = 16.0  distance and # of slots for P.C.
   PSTRESS=    0.0 pullay stress

  Mass of Ions in am
   POMASS = 196.97 12.01  1.00192.22195.08
  Ionic Valenz
   ZVAL   =  11.00  4.00  1.00  9.00 10.00
  Atomic Wigner-Seitz radii
   RWIGS  =  -1.00 -1.00 -1.00 -1.00 -1.00
  virtual crystal weights 
   VCA    =   1.00  1.00  1.00  1.00  1.00
   NELECT =     168.0000    total number of electrons
   NUPDOWN=      -1.0000    fix difference up-down

 DOS related values:
   EMIN   =  10.00;   EMAX   =-10.00  energy-range for DOS
   EFERMI =   0.00
   ISMEAR =     1;   SIGMA  =   0.20  broadening in eV -4-tet -1-fermi 0-gaus

 Electronic relaxation 2 (details)
   IALGO  =     38    algorithm
   LDIAG  =      T    sub-space diagonalisation (order eigenvalues)
   LSUBROT=      F    optimize rotation matrix (better conditioning)
   TURBO    =      0    0=normal 1=particle mesh
   IRESTART =      0    0=no restart 2=restart with 2 vectors
   NREBOOT  =      0    no. of reboots
   NMIN     =      0    reboot dimension
   EREF     =   0.00    reference energy to select bands
   IMIX   =      4    mixing-type and parameters
     AMIX     =   0.40;   BMIX     =  1.00
     AMIX_MAG =   1.60;   BMIX_MAG =  1.00
     AMIN     =   0.10
     WC   =   100.;   INIMIX=   1;  MIXPRE=   1;  MAXMIX= -45

 Intra band minimization:
   WEIMIN = 0.0000     energy-eigenvalue tresh-hold
   EBREAK =  0.25E-07  absolut break condition
   DEPER  =   0.30     relativ break condition  

   TIME   =   0.40     timestep for ELM

  volume/ion in A,a.u.               =      39.24       264.83
  Fermi-wavevector in a.u.,A,eV,Ry     =   0.963488  1.820729 12.630418  0.928310
  Thomas-Fermi vector in A             =   2.093038
 
 Write flags
   LWAVE        =      F    write WAVECAR
   LDOWNSAMPLE  =      F    k-point downsampling of WAVECAR
   LCHARG       =      F    write CHGCAR
   LVTOT        =      F    write LOCPOT, total local potential
   LVHAR        =      F    write LOCPOT, Hartree potential only
   LELF         =      F    write electronic localiz. function (ELF)
   LORBIT       =      0    0 simple, 1 ext, 2 COOP (PROOUT), +10 PAW based schemes


 Dipole corrections
   LMONO  =      F    monopole corrections only (constant potential shift)
   LDIPOL =      F    correct potential (dipole corrections)
   IDIPOL =      3    1-x, 2-y, 3-z, 4-all directions 
   EPSILON=  1.0000000 bulk dielectric constant

 Exchange correlation treatment:
   GGA     =    --    GGA type
   LEXCH   =     8    internal setting for exchange type
   VOSKOWN=      0    Vosko Wilk Nusair interpolation
   LHFCALC =     F    Hartree Fock is set to
   LHFONE  =     F    Hartree Fock one center treatment
   AEXX    =    0.0000 exact exchange contribution

 Linear response parameters
   LEPSILON=     F    determine dielectric tensor
   LRPA    =     F    only Hartree local field effects (RPA)
   LNABLA  =     F    use nabla operator in PAW spheres
   LVEL    =     F    velocity operator in full k-point grid
   LINTERFAST=   F  fast interpolation
   KINTER  =     0    interpolate to denser k-point grid
   CSHIFT  =0.1000    complex shift for real part using Kramers Kronig
   OMEGAMAX=  -1.0    maximum frequency
   DEG_THRESHOLD= 0.2000000E-02 threshold for treating states as degnerate
   RTIME   =   -0.100 relaxation time in fs
  (WPLASMAI=    0.000 imaginary part of plasma frequency in eV, 0.658/RTIME)
   DFIELD  = 0.0000000 0.0000000 0.0000000 field for delta impulse in time
 
 Orbital magnetization related:
   ORBITALMAG=     F  switch on orbital magnetization
   LCHIMAG   =     F  perturbation theory with respect to B field
   DQ        =  0.001000  dq finite difference perturbation B field
   LLRAUG    =     F  two centre corrections for induced B field



--------------------------------------------------------------------------------------------------------


 Static calculation
 charge density and potential will be updated during run
 non-spin polarized calculation
 Variant of blocked Davidson
 Davidson routine will perform the subspace rotation
 perform sub-space diagonalisation
    after iterative eigenvector-optimisation
 modified Broyden-mixing scheme, WC =      100.0
 initial mixing is a Kerker type mixing with AMIX =  0.4000 and BMIX =      1.0000
 Hartree-type preconditioning will be used
 using additional bands           16
 real space projection scheme for non local part
 use partial core corrections
 calculate Harris-corrections to forces 
   (improved forces if not selfconsistent)
 use gradient corrections 
 use of overlap-Matrix (Vanderbilt PP)
 Methfessel and Paxton  Order N= 1 SIGMA  =   0.20


--------------------------------------------------------------------------------------------------------


  energy-cutoff  :      350.00
  volume of cell :      824.13
      direct lattice vectors                 reciprocal lattice vectors
     5.557859300  0.000000000  0.000000000     0.179925390 -0.103879972  0.000000000
     2.778929650  4.813247345  0.000000000     0.000000000  0.207759944  0.000000000
     0.000000000  0.000000000 30.806959674     0.000000000  0.000000000  0.032460198

  length of vectors
     5.557859300  5.557859300 30.806959674     0.207759944  0.207759944  0.032460198


 
 k-points in units of 2pi/SCALE and weight: 0.5.Ir1.Au10                            
   0.01124534  0.00649250  0.00000000       0.010
   0.00000000  0.01298500  0.00000000       0.010
  -0.01124534  0.00649250  0.00000000       0.010
   0.03373601 -0.00649250  0.00000000       0.010
   0.02249067  0.02596999  0.00000000       0.010
  -0.01124534  0.03246249  0.00000000       0.010
   0.02249067 -0.02596999  0.00000000       0.010
  -0.01124534 -0.03246249  0.00000000       0.010
  -0.03373601 -0.00649250  0.00000000       0.010
   0.05622668 -0.01947749  0.00000000       0.010
   0.04498135  0.03895499  0.00000000       0.010
  -0.01124534  0.05843248  0.00000000       0.010
   0.04498135 -0.03895499  0.00000000       0.010
  -0.01124534 -0.05843248  0.00000000       0.010
  -0.05622668 -0.01947749  0.00000000       0.010
   0.07871736 -0.03246249  0.00000000       0.010
   0.06747202  0.05193999  0.00000000       0.010
  -0.01124534  0.08440248  0.00000000       0.010
   0.06747202 -0.05193999  0.00000000       0.010
  -0.01124534 -0.08440248  0.00000000       0.010
  -0.07871736 -0.03246249  0.00000000       0.010
  -0.07871736  0.05843248  0.00000000       0.010
   0.08996269 -0.14283496  0.00000000       0.010
  -0.01124534  0.11037247  0.00000000       0.010
   0.08996269 -0.06492498  0.00000000       0.010
  -0.01124534  0.09738747  0.00000000       0.010
   0.07871736  0.05843248  0.00000000       0.010
  -0.05622668  0.04544749  0.00000000       0.010
  -0.06747202 -0.02596999  0.00000000       0.010
  -0.01124534 -0.07141748  0.00000000       0.010
  -0.06747202  0.02596999  0.00000000       0.010
  -0.01124534  0.07141748  0.00000000       0.010
   0.05622668  0.04544749  0.00000000       0.010
  -0.03373601  0.03246249  0.00000000       0.010
  -0.04498135 -0.01298500  0.00000000       0.010
  -0.01124534 -0.04544749  0.00000000       0.010
  -0.04498135  0.01298500  0.00000000       0.010
  -0.01124534  0.04544749  0.00000000       0.010
   0.03373601  0.03246249  0.00000000       0.010
  -0.01124534  0.01947749  0.00000000       0.010
  -0.02249067  0.00000000  0.00000000       0.010
  -0.01124534 -0.01947749  0.00000000       0.010
   0.03373601  0.01947749  0.00000000       0.010
   0.00000000  0.03895499  0.00000000       0.010
  -0.03373601  0.01947749  0.00000000       0.010
   0.05622668  0.00649250  0.00000000       0.010
   0.02249067  0.05193999  0.00000000       0.010
  -0.03373601  0.04544749  0.00000000       0.010
   0.02249067 -0.05193999  0.00000000       0.010
  -0.03373601 -0.04544749  0.00000000       0.010
  -0.05622668  0.00649250  0.00000000       0.010
   0.07871736 -0.00649250  0.00000000       0.010
   0.04498135  0.06492498  0.00000000       0.010
  -0.03373601  0.07141748  0.00000000       0.010
   0.04498135 -0.06492498  0.00000000       0.010
  -0.03373601 -0.07141748  0.00000000       0.010
  -0.07871736 -0.00649250  0.00000000       0.010
  -0.07871736  0.08440248  0.00000000       0.010
   0.06747202 -0.12984997  0.00000000       0.010
  -0.03373601  0.09738747  0.00000000       0.010
   0.06747202 -0.07790998  0.00000000       0.010
  -0.03373601  0.11037247  0.00000000       0.010
   0.07871736 -0.12335747  0.00000000       0.010
  -0.05622668  0.07141748  0.00000000       0.010
   0.08996269 -0.11686497  0.00000000       0.010
  -0.03373601  0.12335747  0.00000000       0.010
   0.08996269 -0.09089498  0.00000000       0.010
  -0.03373601  0.08440248  0.00000000       0.010
   0.05622668  0.07141748  0.00000000       0.010
  -0.03373601  0.05843248  0.00000000       0.010
  -0.06747202  0.00000000  0.00000000       0.010
  -0.03373601 -0.05843248  0.00000000       0.010
   0.05622668  0.03246249  0.00000000       0.010
   0.00000000  0.06492498  0.00000000       0.010
  -0.05622668  0.03246249  0.00000000       0.010
   0.07871736  0.01947749  0.00000000       0.010
   0.02249067  0.07790998  0.00000000       0.010
  -0.05622668  0.05843248  0.00000000       0.010
   0.02249067 -0.07790998  0.00000000       0.010
  -0.05622668 -0.05843248  0.00000000       0.010
  -0.07871736  0.01947749  0.00000000       0.010
  -0.07871736  0.11037247  0.00000000       0.010
   0.04498135 -0.11686497  0.00000000       0.010
  -0.05622668  0.08440248  0.00000000       0.010
   0.04498135 -0.09089498  0.00000000       0.010
  -0.05622668  0.12335747  0.00000000       0.010
   0.07871736 -0.09738747  0.00000000       0.010
  -0.05622668  0.09738747  0.00000000       0.010
   0.06747202 -0.10387997  0.00000000       0.010
  -0.05622668  0.11037247  0.00000000       0.010
   0.07871736  0.04544749  0.00000000       0.010
   0.00000000  0.09089498  0.00000000       0.010
  -0.07871736  0.04544749  0.00000000       0.010
  -0.07871736  0.13634246  0.00000000       0.010
   0.02249067 -0.10387997  0.00000000       0.010
  -0.07871736  0.07141748  0.00000000       0.010
 
 k-points in reciprocal lattice and weights: 0.5.Ir1.Au10                            
   0.06250000  0.06250000  0.00000000       0.010
   0.00000000  0.06250000  0.00000000       0.010
  -0.06250000  0.00000000  0.00000000       0.010
   0.18750000  0.06250000  0.00000000       0.010
   0.12500000  0.18750000  0.00000000       0.010
  -0.06250000  0.12500000  0.00000000       0.010
   0.12500000 -0.06250000  0.00000000       0.010
  -0.06250000 -0.18750000  0.00000000       0.010
  -0.18750000 -0.12500000  0.00000000       0.010
   0.31250000  0.06250000  0.00000000       0.010
   0.25000000  0.31250000  0.00000000       0.010
  -0.06250000  0.25000000  0.00000000       0.010
   0.25000000 -0.06250000  0.00000000       0.010
  -0.06250000 -0.31250000  0.00000000       0.010
  -0.31250000 -0.25000000  0.00000000       0.010
   0.43750000  0.06250000  0.00000000       0.010
   0.37500000  0.43750000  0.00000000       0.010
  -0.06250000  0.37500000  0.00000000       0.010
   0.37500000 -0.06250000  0.00000000       0.010
  -0.06250000 -0.43750000  0.00000000       0.010
  -0.43750000 -0.37500000  0.00000000       0.010
  -0.43750000  0.06250000  0.00000000       0.010
   0.50000000 -0.43750000  0.00000000       0.010
  -0.06250000  0.50000000  0.00000000       0.010
   0.50000000 -0.06250000  0.00000000       0.010
  -0.06250000  0.43750000  0.00000000       0.010
   0.43750000  0.50000000  0.00000000       0.010
  -0.31250000  0.06250000  0.00000000       0.010
  -0.37500000 -0.31250000  0.00000000       0.010
  -0.06250000 -0.37500000  0.00000000       0.010
  -0.37500000 -0.06250000  0.00000000       0.010
  -0.06250000  0.31250000  0.00000000       0.010
   0.31250000  0.37500000  0.00000000       0.010
  -0.18750000  0.06250000  0.00000000       0.010
  -0.25000000 -0.18750000  0.00000000       0.010
  -0.06250000 -0.25000000  0.00000000       0.010
  -0.25000000 -0.06250000  0.00000000       0.010
  -0.06250000  0.18750000  0.00000000       0.010
   0.18750000  0.25000000  0.00000000       0.010
  -0.06250000  0.06250000  0.00000000       0.010
  -0.12500000 -0.06250000  0.00000000       0.010
  -0.06250000 -0.12500000  0.00000000       0.010
   0.18750000  0.18750000  0.00000000       0.010
   0.00000000  0.18750000  0.00000000       0.010
  -0.18750000  0.00000000  0.00000000       0.010
   0.31250000  0.18750000  0.00000000       0.010
   0.12500000  0.31250000  0.00000000       0.010
  -0.18750000  0.12500000  0.00000000       0.010
   0.12500000 -0.18750000  0.00000000       0.010
  -0.18750000 -0.31250000  0.00000000       0.010
  -0.31250000 -0.12500000  0.00000000       0.010
   0.43750000  0.18750000  0.00000000       0.010
   0.25000000  0.43750000  0.00000000       0.010
  -0.18750000  0.25000000  0.00000000       0.010
   0.25000000 -0.18750000  0.00000000       0.010
  -0.18750000 -0.43750000  0.00000000       0.010
  -0.43750000 -0.25000000  0.00000000       0.010
  -0.43750000  0.18750000  0.00000000       0.010
   0.37500000 -0.43750000  0.00000000       0.010
  -0.18750000  0.37500000  0.00000000       0.010
   0.37500000 -0.18750000  0.00000000       0.010
  -0.18750000  0.43750000  0.00000000       0.010
   0.43750000 -0.37500000  0.00000000       0.010
  -0.31250000  0.18750000  0.00000000       0.010
   0.50000000 -0.31250000  0.00000000       0.010
  -0.18750000  0.50000000  0.00000000       0.010
   0.50000000 -0.18750000  0.00000000       0.010
  -0.18750000  0.31250000  0.00000000       0.010
   0.31250000  0.50000000  0.00000000       0.010
  -0.18750000  0.18750000  0.00000000       0.010
  -0.37500000 -0.18750000  0.00000000       0.010
  -0.18750000 -0.37500000  0.00000000       0.010
   0.31250000  0.31250000  0.00000000       0.010
   0.00000000  0.31250000  0.00000000       0.010
  -0.31250000  0.00000000  0.00000000       0.010
   0.43750000  0.31250000  0.00000000       0.010
   0.12500000  0.43750000  0.00000000       0.010
  -0.31250000  0.12500000  0.00000000       0.010
   0.12500000 -0.31250000  0.00000000       0.010
  -0.31250000 -0.43750000  0.00000000       0.010
  -0.43750000 -0.12500000  0.00000000       0.010
  -0.43750000  0.31250000  0.00000000       0.010
   0.25000000 -0.43750000  0.00000000       0.010
  -0.31250000  0.25000000  0.00000000       0.010
   0.25000000 -0.31250000  0.00000000       0.010
  -0.31250000  0.43750000  0.00000000       0.010
   0.43750000 -0.25000000  0.00000000       0.010
  -0.31250000  0.31250000  0.00000000       0.010
   0.37500000 -0.31250000  0.00000000       0.010
  -0.31250000  0.37500000  0.00000000       0.010
   0.43750000  0.43750000  0.00000000       0.010
   0.00000000  0.43750000  0.00000000       0.010
  -0.43750000 -0.00000000  0.00000000       0.010
  -0.43750000  0.43750000  0.00000000       0.010
   0.12500000 -0.43750000  0.00000000       0.010
  -0.43750000  0.12500000  0.00000000       0.010
 
 position of ions in fractional coordinates (direct lattice) 
   0.83607871  0.83485533  0.53906280
   0.99550926  0.03696884  0.72827728
   0.81604879  0.16240739  0.74937920
   0.96285306  0.88264740  0.71087912
   0.18662699  0.92942696  0.74768094
   0.01634044  0.17407633  0.70461518
   0.50028988  0.00002190  0.38905034
   0.16808857  0.66740719  0.46450537
   0.66806793  0.66745004  0.46457432
   0.83608097  0.33483084  0.53905919
   0.33609318  0.33481458  0.53911068
   0.16807858  0.16742507  0.46451346
   0.33604234  0.83485930  0.53906407
   0.00402264  0.00213146  0.61444686
   0.50401127  0.00219456  0.61454012
   0.00405551  0.50215487  0.61457158
   0.50390390  0.50214636  0.61451928
   0.50030535  0.50016294  0.38904898
   0.00019138  0.50013196  0.38905874
   0.66806591  0.16743176  0.46448880
   0.00028423  0.00010053  0.38902611
 
 position of ions in cartesian coordinates  (Angst):
   6.96681206  4.01836522 16.60688593
   5.63563422  0.17794019 22.43600876
   4.98680310  0.78170695 23.08609490
   7.80421686  4.24840024 21.90002451
   3.62005867  4.47356184 23.03377650
   0.57456373  0.83787242 21.70705139
   2.78060165  0.00010542 11.98545827
   2.78889022  3.21239588 14.30999807
   5.56782426  3.21260213 14.31212247
   5.57729175  1.61162366 16.60677471
   2.79838480  1.61154540 16.60836084
   1.39941959  0.80585829 14.31024742
   4.18769134  4.01838433 16.60692513
   0.02828044  0.01025923 18.92923972
   2.80732224  0.01056294 18.93211274
   1.41799302  2.41699558 18.93308201
   4.19605639  2.41695465 18.93147080
   4.17054439  2.40740796 11.98541613
   1.39089518  2.40725884 11.98571680
   4.17829742  0.80589046 14.30948785
   0.00185911  0.00048388 11.98471168
 


--------------------------------------------------------------------------------------------------------


 k-point  1 :   0.0625 0.0625 0.0000  plane waves:   12325
 k-point  2 :   0.0000 0.0625 0.0000  plane waves:   12325
 k-point  3 :  -0.0625 0.0000 0.0000  plane waves:   12325
 k-point  4 :   0.1875 0.0625 0.0000  plane waves:   12294
 k-point  5 :   0.1250 0.1875 0.0000  plane waves:   12294
 k-point  6 :  -0.0625 0.1250 0.0000  plane waves:   12294
 k-point  7 :   0.1250-0.0625 0.0000  plane waves:   12294
 k-point  8 :  -0.0625-0.1875 0.0000  plane waves:   12294
 k-point  9 :  -0.1875-0.1250 0.0000  plane waves:   12294
 k-point 10 :   0.3125 0.0625 0.0000  plane waves:   12263
 k-point 11 :   0.2500 0.3125 0.0000  plane waves:   12263
 k-point 12 :  -0.0625 0.2500 0.0000  plane waves:   12263
 k-point 13 :   0.2500-0.0625 0.0000  plane waves:   12263
 k-point 14 :  -0.0625-0.3125 0.0000  plane waves:   12263
 k-point 15 :  -0.3125-0.2500 0.0000  plane waves:   12263
 k-point 16 :   0.4375 0.0625 0.0000  plane waves:   12221
 k-point 17 :   0.3750 0.4375 0.0000  plane waves:   12221
 k-point 18 :  -0.0625 0.3750 0.0000  plane waves:   12221
 k-point 19 :   0.3750-0.0625 0.0000  plane waves:   12221
 k-point 20 :  -0.0625-0.4375 0.0000  plane waves:   12221
 k-point 21 :  -0.4375-0.3750 0.0000  plane waves:   12221
 k-point 22 :  -0.4375 0.0625 0.0000  plane waves:   12211
 k-point 23 :   0.5000-0.4375 0.0000  plane waves:   12211
 k-point 24 :  -0.0625 0.5000 0.0000  plane waves:   12211
 k-point 25 :   0.5000-0.0625 0.0000  plane waves:   12211
 k-point 26 :  -0.0625 0.4375 0.0000  plane waves:   12211
 k-point 27 :   0.4375 0.5000 0.0000  plane waves:   12211
 k-point 28 :  -0.3125 0.0625 0.0000  plane waves:   12242
 k-point 29 :  -0.3750-0.3125 0.0000  plane waves:   12242
 k-point 30 :  -0.0625-0.3750 0.0000  plane waves:   12242
 k-point 31 :  -0.3750-0.0625 0.0000  plane waves:   12242
 k-point 32 :  -0.0625 0.3125 0.0000  plane waves:   12242
 k-point 33 :   0.3125 0.3750 0.0000  plane waves:   12242
 k-point 34 :  -0.1875 0.0625 0.0000  plane waves:   12280
 k-point 35 :  -0.2500-0.1875 0.0000  plane waves:   12280
 k-point 36 :  -0.0625-0.2500 0.0000  plane waves:   12280
 k-point 37 :  -0.2500-0.0625 0.0000  plane waves:   12280
 k-point 38 :  -0.0625 0.1875 0.0000  plane waves:   12280
 k-point 39 :   0.1875 0.2500 0.0000  plane waves:   12280
 k-point 40 :  -0.0625 0.0625 0.0000  plane waves:   12329
 k-point 41 :  -0.1250-0.0625 0.0000  plane waves:   12329
 k-point 42 :  -0.0625-0.1250 0.0000  plane waves:   12329
 k-point 43 :   0.1875 0.1875 0.0000  plane waves:   12277
 k-point 44 :   0.0000 0.1875 0.0000  plane waves:   12277
 k-point 45 :  -0.1875 0.0000 0.0000  plane waves:   12277
 k-point 46 :   0.3125 0.1875 0.0000  plane waves:   12288
 k-point 47 :   0.1250 0.3125 0.0000  plane waves:   12288
 k-point 48 :  -0.1875 0.1250 0.0000  plane waves:   12288
 k-point 49 :   0.1250-0.1875 0.0000  plane waves:   12288
 k-point 50 :  -0.1875-0.3125 0.0000  plane waves:   12288
 k-point 51 :  -0.3125-0.1250 0.0000  plane waves:   12288
 k-point 52 :   0.4375 0.1875 0.0000  plane waves:   12234
 k-point 53 :   0.2500 0.4375 0.0000  plane waves:   12234
 k-point 54 :  -0.1875 0.2500 0.0000  plane waves:   12234
 k-point 55 :   0.2500-0.1875 0.0000  plane waves:   12234
 k-point 56 :  -0.1875-0.4375 0.0000  plane waves:   12234
 k-point 57 :  -0.4375-0.2500 0.0000  plane waves:   12234
 k-point 58 :  -0.4375 0.1875 0.0000  plane waves:   12216
 k-point 59 :   0.3750-0.4375 0.0000  plane waves:   12216
 k-point 60 :  -0.1875 0.3750 0.0000  plane waves:   12216
 k-point 61 :   0.3750-0.1875 0.0000  plane waves:   12216
 k-point 62 :  -0.1875 0.4375 0.0000  plane waves:   12216
 k-point 63 :   0.4375-0.3750 0.0000  plane waves:   12216
 k-point 64 :  -0.3125 0.1875 0.0000  plane waves:   12215
 k-point 65 :   0.5000-0.3125 0.0000  plane waves:   12215
 k-point 66 :  -0.1875 0.5000 0.0000  plane waves:   12215
 k-point 67 :   0.5000-0.1875 0.0000  plane waves:   12215
 k-point 68 :  -0.1875 0.3125 0.0000  plane waves:   12215
 k-point 69 :   0.3125 0.5000 0.0000  plane waves:   12215
 k-point 70 :  -0.1875 0.1875 0.0000  plane waves:   12289
 k-point 71 :  -0.3750-0.1875 0.0000  plane waves:   12289
 k-point 72 :  -0.1875-0.3750 0.0000  plane waves:   12289
 k-point 73 :   0.3125 0.3125 0.0000  plane waves:   12275
 k-point 74 :   0.0000 0.3125 0.0000  plane waves:   12275
 k-point 75 :  -0.3125 0.0000 0.0000  plane waves:   12275
 k-point 76 :   0.4375 0.3125 0.0000  plane waves:   12239
 k-point 77 :   0.1250 0.4375 0.0000  plane waves:   12239
 k-point 78 :  -0.3125 0.1250 0.0000  plane waves:   12239
 k-point 79 :   0.1250-0.3125 0.0000  plane waves:   12239
 k-point 80 :  -0.3125-0.4375 0.0000  plane waves:   12239
 k-point 81 :  -0.4375-0.1250 0.0000  plane waves:   12239
 k-point 82 :  -0.4375 0.3125 0.0000  plane waves:   12235
 k-point 83 :   0.2500-0.4375 0.0000  plane waves:   12235
 k-point 84 :  -0.3125 0.2500 0.0000  plane waves:   12235
 k-point 85 :   0.2500-0.3125 0.0000  plane waves:   12235
 k-point 86 :  -0.3125 0.4375 0.0000  plane waves:   12235
 k-point 87 :   0.4375-0.2500 0.0000  plane waves:   12235
 k-point 88 :  -0.3125 0.3125 0.0000  plane waves:   12232
 k-point 89 :   0.3750-0.3125 0.0000  plane waves:   12232
 k-point 90 :  -0.3125 0.3750 0.0000  plane waves:   12232
 k-point 91 :   0.4375 0.4375 0.0000  plane waves:   12200
 k-point 92 :   0.0000 0.4375 0.0000  plane waves:   12200
 k-point 93 :  -0.4375-0.0000 0.0000  plane waves:   12200
 k-point 94 :  -0.4375 0.4375 0.0000  plane waves:   12214
 k-point 95 :   0.1250-0.4375 0.0000  plane waves:   12214
 k-point 96 :  -0.4375 0.1250 0.0000  plane waves:   12214

 maximum and minimum number of plane-waves per node :      3101     2992

 maximum number of plane-waves:     12329
 maximum index in each direction: 
   IXMAX=    8   IYMAX=    8   IZMAX=   46
   IXMIN=   -8   IYMIN=   -8   IZMIN=  -46


 real space projection operators:
  total allocation   :       5080.73 KBytes
  max/ min on nodes  :       1273.55       1267.59


 parallel 3D FFT for wavefunctions:
    minimum data exchange during FFTs selected (reduces bandwidth)
 parallel 3D FFT for charge:
    minimum data exchange during FFTs selected (reduces bandwidth)


 total amount of memory used by VASP MPI-rank0   164311. kBytes
=======================================================================

   base      :      30000. kBytes
   nonlr-proj:       2358. kBytes
   fftplans  :       2967. kBytes
   grid      :       6321. kBytes
   one-center:         93. kBytes
   wavefun   :     122572. kBytes
 
     INWAV:  cpu time    0.0000: real time    0.0000
 Broyden mixing: mesh for mixing (old mesh)
   NGX = 17   NGY = 17   NGZ = 93
  (NGX  = 56   NGY  = 56   NGZ  =288)
  gives a total of  26877 points

 initial charge density was supplied:
 charge density of overlapping atoms calculated
 number of electron     168.0000000 magnetization 
 keeping initial charge density in first step


--------------------------------------------------------------------------------------------------------


 Maximum index for non-local projection operator          538
 Maximum index for augmentation-charges          720 (set IRDMAX)


--------------------------------------------------------------------------------------------------------


 First call to EWALD:  gamma=   0.189
 Maximum number of real-space cells 5x 5x 1
 Maximum number of reciprocal cells 2x 2x 8

    FEWALD:  cpu time    0.0013: real time    0.0013


--------------------------------------- Iteration      1(   1)  ---------------------------------------


    POTLOK:  cpu time    0.0262: real time    0.0324
    SETDIJ:  cpu time    0.0034: real time    0.0035
     EDDAV:  cpu time   13.9022: real time   13.9375
       DOS:  cpu time    0.0078: real time    0.0078
    --------------------------------------------
      LOOP:  cpu time   13.9396: real time   13.9811

 eigenvalue-minimisations  : 19264
 total energy-change (2. order) : 0.1019466E+04  (-0.5821021E+04)
 number of electron     168.0000000 magnetization 
 augmentation part      168.0000000 magnetization 

 Free energy of the ion-electron system (eV)
  ---------------------------------------------------
  alpha Z        PSCENC =       324.87461712
  Ewald energy   TEWEN  =     99181.18406598
  -Hartree energ DENC   =   -111470.65394755
  -exchange      EXHF   =         0.00000000
  -V(xc)+E(xc)   XCENC  =        68.45857255
  PAW double counting   =     11288.27476651   -10829.50941267
  entropy T*S    EENTRO =         0.00684924
  eigenvalues    EBANDS =       566.19303442
  atomic energy  EATOM  =     11890.63736546
  Solvation  Ediel_sol  =         0.00000000
  ---------------------------------------------------
  free energy    TOTEN  =      1019.46591106 eV

  energy without entropy =     1019.45906182  energy(sigma->0) =     1019.46362798


--------------------------------------------------------------------------------------------------------




--------------------------------------- Iteration      1(   2)  ---------------------------------------


     EDDAV:  cpu time   16.5489: real time   16.5902
       DOS:  cpu time    0.0083: real time    0.0084
    --------------------------------------------
      LOOP:  cpu time   16.5572: real time   16.5985

 eigenvalue-minimisations  : 23856
 total energy-change (2. order) :-0.1048469E+04  (-0.9731511E+03)
 number of electron     168.0000000 magnetization 
 augmentation part      168.0000000 magnetization 

 Free energy of the ion-electron system (eV)
  ---------------------------------------------------
  alpha Z        PSCENC =       324.87461712
  Ewald energy   TEWEN  =     99181.18406598
  -Hartree energ DENC   =   -111470.65394755
  -exchange      EXHF   =         0.00000000
  -V(xc)+E(xc)   XCENC  =        68.45857255
  PAW double counting   =     11288.27476651   -10829.50941267
  entropy T*S    EENTRO =         0.00277284
  eigenvalues    EBANDS =      -482.27213544
  atomic energy  EATOM  =     11890.63736546
  Solvation  Ediel_sol  =         0.00000000
  ---------------------------------------------------
  free energy    TOTEN  =       -29.00333520 eV

  energy without entropy =      -29.00610804  energy(sigma->0) =      -29.00425948


--------------------------------------------------------------------------------------------------------




--------------------------------------- Iteration      1(   3)  ---------------------------------------


     EDDAV:  cpu time   16.1233: real time   16.1668
       DOS:  cpu time    0.0088: real time    0.0088
    --------------------------------------------
      LOOP:  cpu time   16.1321: real time   16.1756

 eigenvalue-minimisations  : 23008
 total energy-change (2. order) :-0.9199170E+02  (-0.8499101E+02)
 number of electron     168.0000000 magnetization 
 augmentation part      168.0000000 magnetization 

 Free energy of the ion-electron system (eV)
  ---------------------------------------------------
  alpha Z        PSCENC =       324.87461712
  Ewald energy   TEWEN  =     99181.18406598
  -Hartree energ DENC   =   -111470.65394755
  -exchange      EXHF   =         0.00000000
  -V(xc)+E(xc)   XCENC  =        68.45857255
  PAW double counting   =     11288.27476651   -10829.50941267
  entropy T*S    EENTRO =        -0.00940935
  eigenvalues    EBANDS =      -574.25165721
  atomic energy  EATOM  =     11890.63736546
  Solvation  Ediel_sol  =         0.00000000
  ---------------------------------------------------
  free energy    TOTEN  =      -120.99503916 eV

  energy without entropy =     -120.98562981  energy(sigma->0) =     -120.99190271


--------------------------------------------------------------------------------------------------------




--------------------------------------- Iteration      1(   4)  ---------------------------------------


     EDDAV:  cpu time   17.4995: real time   17.5588
       DOS:  cpu time    0.0090: real time    0.0090
    --------------------------------------------
      LOOP:  cpu time   17.5085: real time   17.5678

 eigenvalue-minimisations  : 25656
 total energy-change (2. order) :-0.4436304E+01  (-0.4232383E+01)
 number of electron     168.0000000 magnetization 
 augmentation part      168.0000000 magnetization 

 Free energy of the ion-electron system (eV)
  ---------------------------------------------------
  alpha Z        PSCENC =       324.87461712
  Ewald energy   TEWEN  =     99181.18406598
  -Hartree energ DENC   =   -111470.65394755
  -exchange      EXHF   =         0.00000000
  -V(xc)+E(xc)   XCENC  =        68.45857255
  PAW double counting   =     11288.27476651   -10829.50941267
  entropy T*S    EENTRO =        -0.00796724
  eigenvalues    EBANDS =      -578.68940353
  atomic energy  EATOM  =     11890.63736546
  Solvation  Ediel_sol  =         0.00000000
  ---------------------------------------------------
  free energy    TOTEN  =      -125.43134338 eV

  energy without entropy =     -125.42337613  energy(sigma->0) =     -125.42868763


--------------------------------------------------------------------------------------------------------




--------------------------------------- Iteration      1(   5)  ---------------------------------------


     EDDAV:  cpu time   18.2388: real time   18.2941
       DOS:  cpu time    0.0091: real time    0.0091
    CHARGE:  cpu time    0.7116: real time    0.7135
    MIXING:  cpu time    0.0011: real time    0.0011
    --------------------------------------------
      LOOP:  cpu time   18.9605: real time   19.0178

 eigenvalue-minimisations  : 27028
 total energy-change (2. order) :-0.1434684E+00  (-0.1422182E+00)
 number of electron     168.0000099 magnetization 
 augmentation part       47.1473751 magnetization 

 Broyden mixing:
  rms(total) = 0.42498E+01    rms(broyden)= 0.42496E+01
  rms(prec ) = 0.42920E+01
  weight for this iteration     100.00

 Free energy of the ion-electron system (eV)
  ---------------------------------------------------
  alpha Z        PSCENC =       324.87461712
  Ewald energy   TEWEN  =     99181.18406598
  -Hartree energ DENC   =   -111470.65394755
  -exchange      EXHF   =         0.00000000
  -V(xc)+E(xc)   XCENC  =        68.45857255
  PAW double counting   =     11288.27476651   -10829.50941267
  entropy T*S    EENTRO =        -0.00806223
  eigenvalues    EBANDS =      -578.83277699
  atomic energy  EATOM  =     11890.63736546
  Solvation  Ediel_sol  =         0.00000000
  ---------------------------------------------------
  free energy    TOTEN  =      -125.57481182 eV

  energy without entropy =     -125.56674959  energy(sigma->0) =     -125.57212441


--------------------------------------------------------------------------------------------------------




--------------------------------------- Iteration      1(   6)  ---------------------------------------


    POTLOK:  cpu time    0.0234: real time    0.0240
    SETDIJ:  cpu time    0.0035: real time    0.0035
     EDDAV:  cpu time   15.8518: real time   15.8923
       DOS:  cpu time    0.0104: real time    0.0104
    CHARGE:  cpu time    0.7315: real time    0.7333
    MIXING:  cpu time    0.0010: real time    0.0010
    --------------------------------------------
      LOOP:  cpu time   16.6215: real time   16.6644

 eigenvalue-minimisations  : 22568
 total energy-change (2. order) : 0.5573705E+01  (-0.3220612E+01)
 number of electron     168.0000088 magnetization 
 augmentation part       49.7269306 magnetization 

 Broyden mixing:
  rms(total) = 0.34610E+01    rms(broyden)= 0.34609E+01
  rms(prec ) = 0.37722E+01
  weight for this iteration     100.00

 eigenvalues of (default mixing * dielectric matrix)
  average eigenvalue GAMMA=   0.9807
  0.9807

 Free energy of the ion-electron system (eV)
  ---------------------------------------------------
  alpha Z        PSCENC =       324.87461712
  Ewald energy   TEWEN  =     99181.18406598
  -Hartree energ DENC   =   -111277.21712299
  -exchange      EXHF   =         0.00000000
  -V(xc)+E(xc)   XCENC  =        65.45843275
  PAW double counting   =     12548.50588140   -12113.16053511
  entropy T*S    EENTRO =         0.00628537
  eigenvalues    EBANDS =      -740.29009707
  atomic energy  EATOM  =     11890.63736546
  Solvation  Ediel_sol  =         0.00000000
  ---------------------------------------------------
  free energy    TOTEN  =      -120.00110708 eV

  energy without entropy =     -120.00739245  energy(sigma->0) =     -120.00320220


--------------------------------------------------------------------------------------------------------




--------------------------------------- Iteration      1(   7)  ---------------------------------------


    POTLOK:  cpu time    0.0230: real time    0.0232
    SETDIJ:  cpu time    0.0033: real time    0.0033
     EDDAV:  cpu time   19.4917: real time   19.5644
       DOS:  cpu time    0.0091: real time    0.0092
    CHARGE:  cpu time    0.7151: real time    0.7169
    MIXING:  cpu time    0.0012: real time    0.0012
    --------------------------------------------
      LOOP:  cpu time   20.2434: real time   20.3182

 eigenvalue-minimisations  : 28776
 total energy-change (2. order) :-0.5143917E+02  (-0.2272569E+02)
 number of electron     168.0000090 magnetization 
 augmentation part       47.8966584 magnetization 

 Broyden mixing:
  rms(total) = 0.57448E+01    rms(broyden)= 0.57447E+01
  rms(prec ) = 0.73148E+01
  weight for this iteration     100.00

 eigenvalues of (default mixing * dielectric matrix)
  average eigenvalue GAMMA=   0.8927
  1.6217  0.1638

 Free energy of the ion-electron system (eV)
  ---------------------------------------------------
  alpha Z        PSCENC =       324.87461712
  Ewald energy   TEWEN  =     99181.18406598
  -Hartree energ DENC   =   -111366.00015556
  -exchange      EXHF   =         0.00000000
  -V(xc)+E(xc)   XCENC  =        64.99239151
  PAW double counting   =     13184.90979695   -12756.49885575
  entropy T*S    EENTRO =        -0.01114623
  eigenvalues    EBANDS =      -695.52835462
  atomic energy  EATOM  =     11890.63736546
  Solvation  Ediel_sol  =         0.00000000
  ---------------------------------------------------
  free energy    TOTEN  =      -171.44027514 eV

  energy without entropy =     -171.42912891  energy(sigma->0) =     -171.43655973


--------------------------------------------------------------------------------------------------------




--------------------------------------- Iteration      1(   8)  ---------------------------------------


    POTLOK:  cpu time    0.0236: real time    0.0242
    SETDIJ:  cpu time    0.0034: real time    0.0034
     EDDAV:  cpu time   18.5279: real time   18.5738
       DOS:  cpu time    0.0101: real time    0.0101
    CHARGE:  cpu time    0.7136: real time    0.7153
    MIXING:  cpu time    0.0010: real time    0.0010
    --------------------------------------------
      LOOP:  cpu time   19.2797: real time   19.3278

 eigenvalue-minimisations  : 27456
 total energy-change (2. order) : 0.2607755E+02  (-0.1030711E+02)
 number of electron     168.0000114 magnetization 
 augmentation part       49.2984774 magnetization 

 Broyden mixing:
  rms(total) = 0.45261E+01    rms(broyden)= 0.45260E+01
  rms(prec ) = 0.50655E+01
  weight for this iteration     100.00

 eigenvalues of (default mixing * dielectric matrix)
  average eigenvalue GAMMA=   0.8374
  2.0771  0.2176  0.2176

 Free energy of the ion-electron system (eV)
  ---------------------------------------------------
  alpha Z        PSCENC =       324.87461712
  Ewald energy   TEWEN  =     99181.18406598
  -Hartree energ DENC   =   -111414.62897536
  -exchange      EXHF   =         0.00000000
  -V(xc)+E(xc)   XCENC  =        64.39261352
  PAW double counting   =     13988.45592166   -13569.43833972
  entropy T*S    EENTRO =        -0.00973717
  eigenvalues    EBANDS =      -610.83025634
  atomic energy  EATOM  =     11890.63736546
  Solvation  Ediel_sol  =         0.00000000
[...]
     21      -5.2583      2.00000
     22      -5.1410      2.00000
     23      -5.0824      2.00000
     24      -4.9788      2.00000
     25      -4.9113      2.00000
     26      -4.9037      2.00000
     27      -4.8559      2.00000
     28      -4.8065      2.00000
     29      -4.7785      2.00000
     30      -4.6806      2.00000
     31      -4.6477      2.00000
     32      -4.6034      2.00000
     33      -4.4825      2.00000
     34      -4.3889      2.00000
     35      -4.3537      2.00000
     36      -4.3066      2.00000
     37      -4.2569      2.00000
     38      -4.2120      2.00000
     39      -4.0683      2.00000
     40      -4.0623      2.00000
     41      -3.9062      2.00000
     42      -3.8633      2.00000
     43      -3.8555      2.00000
     44      -3.7838      2.00000
     45      -3.7151      2.00000
     46      -3.5668      2.00000
     47      -3.5282      2.00000
     48      -3.5182      2.00000
     49      -3.4532      2.00000
     50      -3.4350      2.00000
     51      -3.4079      2.00000
     52      -3.3758      2.00000
     53      -3.3213      2.00000
     54      -3.2141      2.00000
     55      -3.1435      2.00000
     56      -3.0664      2.00000
     57      -2.9595      2.00000
     58      -2.8551      2.00000
     59      -2.7057      2.00000
     60      -2.6475      2.00000
     61      -2.6212      2.00000
     62      -2.5827      2.00000
     63      -2.4402      2.00000
     64      -2.3570      2.00000
     65      -2.2271      2.00000
     66      -2.2001      2.00000
     67      -2.0950      2.00000
     68      -1.9966      2.00000
     69      -1.9672      2.00000
     70      -1.9106      2.00000
     71      -1.8216      2.00000
     72      -1.8136      2.00000
     73      -1.7276      2.00000
     74      -1.6548      2.00000
     75      -1.5827      2.00000
     76      -1.5032      2.00000
     77      -1.4594      2.00000
     78      -1.3531      2.00000
     79      -1.1743      2.00041
     80      -1.0462      2.00754
     81      -1.0219      2.01172
     82      -0.9320      2.04217
     83      -0.8147      2.06008
     84      -0.7447      1.92447
     85      -0.6571      1.43716
     86      -0.5575      0.62275
     87      -0.5187      0.34983
     88      -0.3521     -0.07062
     89      -0.2174     -0.01993
     90      -0.1591     -0.00734
     91       0.4202     -0.00000
     92       0.7974     -0.00000
     93       1.7033     -0.00000
     94       1.7663     -0.00000
     95       1.8678     -0.00000
     96       2.5332     -0.00000
     97       3.4533     -0.00000
     98       3.6353     -0.00000
     99       4.1890     -0.00000
    100       4.2334     -0.00000

 k-point    96 :      -0.4375    0.1250    0.0000
  band No.  band energies     occupation 
      1     -12.1798      2.00000
      2      -8.1341      2.00000
      3      -8.0561      2.00000
      4      -7.0665      2.00000
      5      -7.0341      2.00000
      6      -6.6747      2.00000
      7      -6.4157      2.00000
      8      -6.3250      2.00000
      9      -6.2415      2.00000
     10      -6.1808      2.00000
     11      -6.0696      2.00000
     12      -6.0350      2.00000
     13      -5.9767      2.00000
     14      -5.9216      2.00000
     15      -5.7872      2.00000
     16      -5.6083      2.00000
     17      -5.5690      2.00000
     18      -5.5181      2.00000
     19      -5.4838      2.00000
     20      -5.3061      2.00000
     21      -5.2532      2.00000
     22      -5.1547      2.00000
     23      -5.0881      2.00000
     24      -4.9679      2.00000
     25      -4.9192      2.00000
     26      -4.9048      2.00000
     27      -4.8520      2.00000
     28      -4.8047      2.00000
     29      -4.7776      2.00000
     30      -4.6599      2.00000
     31      -4.6481      2.00000
     32      -4.6110      2.00000
     33      -4.5158      2.00000
     34      -4.3903      2.00000
     35      -4.3518      2.00000
     36      -4.3052      2.00000
     37      -4.2529      2.00000
     38      -4.1895      2.00000
     39      -4.0902      2.00000
     40      -4.0519      2.00000
     41      -3.9305      2.00000
     42      -3.8561      2.00000
     43      -3.8368      2.00000
     44      -3.7766      2.00000
     45      -3.7077      2.00000
     46      -3.5806      2.00000
     47      -3.5379      2.00000
     48      -3.5173      2.00000
     49      -3.4585      2.00000
     50      -3.4277      2.00000
     51      -3.3948      2.00000
     52      -3.3663      2.00000
     53      -3.3202      2.00000
     54      -3.2195      2.00000
     55      -3.1204      2.00000
     56      -3.0883      2.00000
     57      -3.0007      2.00000
     58      -2.8264      2.00000
     59      -2.7182      2.00000
     60      -2.6605      2.00000
     61      -2.6031      2.00000
     62      -2.5545      2.00000
     63      -2.4365      2.00000
     64      -2.3755      2.00000
     65      -2.2036      2.00000
     66      -2.1972      2.00000
     67      -2.1027      2.00000
     68      -2.0640      2.00000
     69      -1.9318      2.00000
     70      -1.9084      2.00000
     71      -1.8383      2.00000
     72      -1.7668      2.00000
     73      -1.7309      2.00000
     74      -1.6395      2.00000
     75      -1.5795      2.00000
     76      -1.5166      2.00000
     77      -1.5123      2.00000
     78      -1.3360      2.00000
     79      -1.1502      2.00076
     80      -1.1254      2.00140
     81      -0.9893      2.01994
     82      -0.8957      2.05865
     83      -0.8098      2.05633
     84      -0.7507      1.94412
     85      -0.6825      1.61539
     86      -0.5555      0.60740
     87      -0.4820      0.15390
     88      -0.3847     -0.06459
     89      -0.2337     -0.02530
     90      -0.1368     -0.00473
     91       0.4244     -0.00000
     92       0.7981     -0.00000
     93       1.7002     -0.00000
     94       1.7904     -0.00000
     95       1.8462     -0.00000
     96       2.5372     -0.00000
     97       3.4399     -0.00000
     98       3.6360     -0.00000
     99       4.1457     -0.00000
    100       4.2568     -0.00000


--------------------------------------------------------------------------------------------------------


 soft charge-density along one line, spin component           1
         0         1         2         3         4         5         6         7         8         9
 total charge-density along one line
 
 pseudopotential strength for first ion, spin component:           1
 -8.019   0.001  -0.001  -0.008   0.000  -8.166   0.001  -0.001
  0.001  -8.002  -0.000   0.001  -0.007   0.001  -8.149  -0.000
 -0.001  -0.000  -8.019   0.001   0.000  -0.001  -0.000  -8.166
 -0.008   0.001   0.001  -8.002   0.001  -0.007   0.001   0.001
  0.000  -0.007   0.000   0.001  -8.019   0.000  -0.007   0.000
 -8.166   0.001  -0.001  -0.007   0.000  -8.297   0.001  -0.001
  0.001  -8.149  -0.000   0.001  -0.007   0.001  -8.280  -0.000
 -0.001  -0.000  -8.166   0.001   0.000  -0.001  -0.000  -8.297
 -0.007   0.001   0.001  -8.149   0.001  -0.007   0.001   0.001
  0.000  -0.007   0.000   0.001  -8.166   0.000  -0.006   0.000
 -0.000   0.000  -0.001  -0.001   0.000  -0.000   0.000  -0.001
 -0.001   0.000  -0.002  -0.001   0.000  -0.001   0.000  -0.002
 -0.000  -0.002  -0.000  -0.000  -0.000  -0.000  -0.002  -0.000
 -0.000   0.000  -0.002  -0.000  -0.000  -0.000   0.000  -0.002
 -0.000  -0.000   0.000  -0.002  -0.000  -0.000  -0.000   0.000
 -0.000  -0.002  -0.000   0.000  -0.000  -0.000  -0.002  -0.000
  0.000   0.000  -0.003  -0.000  -0.000   0.000   0.000  -0.003
 -0.000   0.000   0.000  -0.002  -0.000  -0.000   0.000   0.000
 total augmentation occupancy for first ion, spin component:           1
  6.185   0.024  -0.015   0.238   0.008  -4.174  -0.018   0.013  -0.339  -0.007   0.006  -0.000   0.000  -0.002   0.000  -0.000
  0.024   6.238  -0.019   0.009   0.244  -0.018  -4.035   0.015  -0.003  -0.342  -0.004   0.001   0.004  -0.001  -0.000  -0.002
 -0.015  -0.019   6.132   0.014   0.012   0.013   0.015  -4.221  -0.008  -0.009   0.078  -0.034  -0.001   0.022   0.002  -0.000
  0.238   0.009   0.014   6.250   0.026  -0.339  -0.003  -0.008  -4.043  -0.020   0.005  -0.002  -0.000   0.000   0.003  -0.000
  0.008   0.244   0.012   0.026   6.164  -0.007  -0.343  -0.009  -0.020  -4.157  -0.001  -0.001   0.002   0.001   0.000  -0.000
 -4.174  -0.018   0.013  -0.339  -0.007   4.077   0.014  -0.011   0.415   0.006  -0.004  -0.000  -0.000   0.001  -0.002   0.000
 -0.018  -4.035   0.015  -0.003  -0.343   0.014   3.782  -0.012  -0.002   0.417   0.002   0.000  -0.010   0.001   0.000   0.001
  0.013   0.015  -4.221  -0.008  -0.009  -0.011  -0.012   4.197   0.004   0.006  -0.086   0.033   0.001  -0.022  -0.001  -0.000
 -0.339  -0.003  -0.008  -4.043  -0.020   0.415  -0.002   0.004   3.787   0.015  -0.003  -0.001   0.000   0.000  -0.009   0.000
 -0.007  -0.342  -0.009  -0.020  -4.157   0.006   0.417   0.006   0.015   4.062  -0.000   0.001  -0.004  -0.001  -0.000   0.000
  0.006  -0.004   0.078   0.005  -0.001  -0.004   0.002  -0.086  -0.003  -0.000   3.050  -0.841   0.000  -0.018   0.000   0.000
 -0.000   0.001  -0.034  -0.002  -0.001  -0.000   0.000   0.033  -0.001   0.001  -0.841   0.254  -0.000   0.005   0.000  -0.000
  0.000   0.004  -0.001  -0.000   0.002  -0.000  -0.010   0.001   0.000  -0.004   0.000  -0.000   0.247   0.000  -0.000  -0.008
 -0.002  -0.001   0.022   0.000   0.001   0.001   0.001  -0.022   0.000  -0.001  -0.018   0.005   0.000   0.239  -0.000  -0.000
  0.000  -0.000   0.002   0.003   0.000  -0.002   0.000  -0.001  -0.009  -0.000   0.000   0.000  -0.000  -0.000   0.247   0.000
 -0.000  -0.002  -0.000  -0.000  -0.000   0.000   0.001  -0.000   0.000   0.000   0.000  -0.000  -0.008  -0.000   0.000   0.000
  0.000   0.000  -0.003  -0.000  -0.000  -0.000  -0.000   0.001   0.000  -0.000   0.001  -0.000  -0.000  -0.008  -0.000   0.000
 -0.000  -0.000  -0.000  -0.002  -0.000   0.000   0.000   0.000   0.001   0.000   0.000  -0.000   0.000  -0.000  -0.008   0.000


------------------------ aborting loop because EDIFF is reached ----------------------------------------



 DIPCOR: dipole corrections for dipol
 direction  3 min pos    19,
 dipolmoment           0.000000      0.000000     -0.061172 electrons x Angstroem
 Tr[quadrupol]      -945.690047

 energy correction for charged system         0.000000 eV
 dipol+quadrupol energy correction            0.000411 eV
 added-field ion interaction          0.000000 eV  (added to PSCEN)

 
  *************** adding dipol energy to TOTEN NOW **************** 
    CHARGE:  cpu time    0.7318: real time    0.7336
    FORLOC:  cpu time    0.0070: real time    0.0070
    FORNL :  cpu time    3.2424: real time    3.2502
    STRESS:  cpu time    9.7327: real time    9.7558
    FORCOR:  cpu time    0.0295: real time    0.0296
    FORHAR:  cpu time    0.0120: real time    0.0120
    MIXING:  cpu time    0.0040: real time    0.0041
    OFIELD:  cpu time    0.0000: real time    0.0000

  FORCE on cell =-STRESS in cart. coord.  units (eV):
  Direction    XX          YY          ZZ          XY          YZ          ZX
  --------------------------------------------------------------------------------------
  Alpha Z   324.87462   324.87462   324.87462
  Ewald  108069.36427108072.69044************    -2.56051    -0.40533    -2.79197
  Hartree110523.07300110524.39857************    -0.56604     0.04981    -0.64548
  E(xc)    -736.91600  -736.89161  -741.57854    -0.00281     0.00234    -0.03169
  Local  ************************223742.28829     2.73717     0.27877     2.43242
  n-local    42.88655    43.01147    24.52780    -0.13330    -0.17258    -0.05018
  augment   834.43896   834.24102   863.25298     0.14505     0.08576     0.37791
  Kinetic  2382.66170  2382.26995  2456.45328     0.34622     0.07887     0.71804
  Fock        0.00000     0.00000     0.00000     0.00000     0.00000     0.00000
  -------------------------------------------------------------------------------------
  Total     -12.17736   -12.11848    -0.82333    -0.03422    -0.08236     0.00906
  in kB     -23.67386   -23.55939    -1.60063    -0.06652    -0.16012     0.01762
  external pressure =      -16.28 kB  Pullay stress =        0.00 kB


 VOLUME and BASIS-vectors are now :
 -----------------------------------------------------------------------------
  energy-cutoff  :      350.00
  volume of cell :      824.13
      direct lattice vectors                 reciprocal lattice vectors
     5.557859300  0.000000000  0.000000000     0.179925390 -0.103879972  0.000000000
     2.778929650  4.813247345  0.000000000     0.000000000  0.207759944  0.000000000
     0.000000000  0.000000000 30.806959674     0.000000000  0.000000000  0.032460198

  length of vectors
     5.557859300  5.557859300 30.806959674     0.207759944  0.207759944  0.032460198


 FORCES acting on ions
    electron-ion (+dipol)            ewald-force                    non-local-force                 convergence-correction
 -----------------------------------------------------------------------------------------------
   0.813E+00 0.208E+00 -.832E+03   -.802E+00 -.217E+00 0.832E+03   -.363E-02 0.327E-02 0.272E+00   0.394E-03 0.115E-04 0.157E-01
   0.227E-01 0.627E-01 -.119E+04   0.108E-01 -.298E-01 0.119E+04   -.308E-01 -.214E-01 -.104E-01   -.271E-04 -.463E-04 -.302E-02
   0.290E+02 -.270E+02 -.309E+03   -.322E+02 0.300E+02 0.313E+03   0.321E+01 -.299E+01 -.320E+01   0.168E-04 -.238E-04 -.390E-03
   0.273E+02 0.332E+02 -.287E+03   -.303E+02 -.369E+02 0.284E+03   0.300E+01 0.365E+01 0.262E+01   0.471E-04 0.520E-04 -.912E-03
   -.341E+02 0.231E+02 -.308E+03   0.379E+02 -.257E+02 0.311E+03   -.378E+01 0.256E+01 -.295E+01   -.273E-04 0.102E-04 -.419E-03
   -.223E+02 -.296E+02 -.283E+03   0.247E+02 0.328E+02 0.280E+03   -.243E+01 -.323E+01 0.355E+01   -.567E-04 -.672E-04 -.950E-03
   0.101E+00 -.319E+00 0.265E+04   -.102E+00 0.302E+00 -.265E+04   0.305E-01 0.133E-02 -.188E+00   -.749E-04 -.214E-03 0.439E-02
   -.489E+01 0.289E+01 0.113E+04   0.505E+01 -.300E+01 -.113E+04   -.622E-02 0.119E-01 -.308E+00   0.381E-03 0.301E-03 0.157E-01
   0.483E+01 -.257E+01 0.114E+04   -.501E+01 0.268E+01 -.114E+04   0.219E-01 0.142E-02 -.316E+00   -.382E-03 -.140E-02 0.170E-01
   0.909E-02 -.582E+00 -.757E+03   -.302E-01 0.601E+00 0.757E+03   0.494E-01 -.404E-01 0.454E+00   -.527E-03 0.900E-04 0.145E-01
   0.566E-01 0.256E+00 -.758E+03   -.193E-01 -.220E+00 0.758E+03   -.525E-01 -.499E-01 0.365E+00   0.530E-03 0.498E-03 0.144E-01
   -.478E+01 0.264E+01 0.113E+04   0.495E+01 -.275E+01 -.113E+04   -.156E-01 0.666E-02 -.329E+00   -.149E-02 0.339E-03 0.169E-01
   -.722E+00 0.166E+00 -.757E+03   0.716E+00 -.210E+00 0.756E+03   0.889E-02 0.679E-01 0.377E+00   -.348E-03 -.603E-03 0.147E-01
   -.388E+01 -.570E+00 -.261E+04   0.408E+01 0.662E+00 0.261E+04   -.847E-01 -.409E-02 0.140E+01   0.311E-03 -.341E-03 0.108E-02
   0.427E+01 -.182E+01 -.264E+04   -.443E+01 0.194E+01 0.264E+04   0.437E-01 -.517E-01 0.105E+01   -.323E-03 -.321E-03 0.124E-02
   -.719E+00 0.365E+01 -.264E+04   0.741E+00 -.386E+01 0.264E+04   -.444E-01 0.728E-01 0.101E+01   0.111E-04 0.138E-03 0.147E-02
   0.848E+00 -.972E+00 -.263E+04   -.824E+00 0.977E+00 0.263E+04   -.183E-02 -.185E-01 0.949E+00   -.309E-05 0.511E-03 0.130E-02
   -.121E-01 0.641E-01 0.294E+04   -.334E-01 -.415E-01 -.294E+04   0.694E-01 -.286E-01 -.632E+00   -.100E-03 0.346E-03 0.441E-02
   -.224E+00 0.330E+00 0.294E+04   0.226E+00 -.287E+00 -.294E+04   -.284E-01 -.256E-01 -.744E+00   0.102E-03 0.249E-03 0.443E-02
   0.470E+01 -.297E+01 0.114E+04   -.490E+01 0.307E+01 -.114E+04   0.177E-01 -.199E-01 -.266E+00   0.147E-02 0.773E-03 0.166E-01
   -.358E+00 -.228E+00 0.294E+04   0.313E+00 0.171E+00 -.294E+04   0.199E-01 0.707E-01 -.737E+00   0.879E-04 -.357E-03 0.422E-02
 -----------------------------------------------------------------------------------------------
   0.100E-01 0.289E-01 -.254E+01   -.442E-13 -.148E-13 -.182E-11   -.116E-01 -.340E-01 0.237E+01   -.588E-05 -.575E-04 0.142E+00
 
 
 POSITION                                       TOTAL-FORCE (eV/Angst)
 -----------------------------------------------------------------------------------
      6.96681      4.01837     16.60689         0.008652     -0.005426      0.159125
      5.63563      0.17794     22.43601         0.002757      0.011822      0.017717
      4.98680      0.78171     23.08609        -0.002889     -0.002982      0.024412
      7.80422      4.24840     21.90002        -0.002795     -0.005135      0.018951
      3.62006      4.47356     23.03378        -0.001757     -0.002630      0.023789
      0.57456      0.83787     21.70705        -0.000102     -0.004271      0.025228
      2.78060      0.00011     11.98546         0.029179     -0.015609      1.157813
      2.78889      3.21240     14.31000         0.155755     -0.093093     -0.129270
      5.56782      3.21260     14.31212        -0.161815      0.108613     -0.452873
      5.57729      1.61162     16.60677         0.027868     -0.020943     -0.206599
      2.79838      1.61155     16.60836        -0.014556     -0.013150      0.025559
      1.39942      0.80586     14.31025         0.152056     -0.093935     -0.255573
      4.18769      4.01838     16.60693         0.002520      0.023743      0.024244
      0.02828      0.01026     18.92924         0.115088      0.087801      0.170998
      2.80732      0.01056     18.93211        -0.109621      0.062857      0.176061
      1.41799      2.41700     18.93308        -0.022268     -0.132978      0.175305
      4.19606      2.41695     18.93147         0.022527     -0.013654     -0.038202
      4.17054      2.40741     11.98542         0.023870     -0.005419     -0.344009
      1.39090      2.40726     11.98572        -0.026165      0.017404     -0.056299
      4.17830      0.80589     14.30949        -0.173488      0.082680     -0.457497
      0.00186      0.00048     11.98471        -0.024818      0.014305     -0.058881
 -----------------------------------------------------------------------------------
    total drift:                               -0.001535     -0.005123     -0.031399


--------------------------------------------------------------------------------------------------------



  FREE ENERGIE OF THE ION-ELECTRON SYSTEM (eV)
  ---------------------------------------------------
  free  energy   TOTEN  =      -115.75214395 eV

  energy  without entropy=     -115.73833795  energy(sigma->0) =     -115.74754195
 


--------------------------------------------------------------------------------------------------------


    POTLOK:  cpu time    0.0269: real time    0.0269


--------------------------------------------------------------------------------------------------------


     LOOP+:  cpu time  555.6008: real time  557.2061
    4ORBIT:  cpu time    0.0000: real time    0.0000

 total amount of memory used by VASP MPI-rank0   164311. kBytes
=======================================================================

   base      :      30000. kBytes
   nonlr-proj:       2358. kBytes
   fftplans  :       2967. kBytes
   grid      :       6321. kBytes
   one-center:         93. kBytes
   wavefun   :     122572. kBytes
 
  
  
 General timing and accounting informations for this job:
 ========================================================
  
                  Total CPU time used (sec):      563.409
                            User time (sec):      561.672
                          System time (sec):        1.737
                         Elapsed time (sec):      565.208
  
                   Maximum memory used (kb):      208780.
                   Average memory used (kb):           0.
  
                          Minor page faults:        83420
                          Major page faults:            0
                 Voluntary context switches:          875
