       N       E                     dE             d eps       ncg     rms          rms(c)
DAV:   1     0.102956182058E+04    0.10296E+04   -0.58316E+04 19280   0.103E+03
DAV:   2    -0.296373613522E+02   -0.10592E+04   -0.98529E+03 24056   0.259E+02
DAV:   3    -0.121052206504E+03   -0.91415E+02   -0.84640E+02 23064   0.758E+01
DAV:   4    -0.125461232028E+03   -0.44090E+01   -0.41868E+01 25588   0.169E+01
DAV:   5    -0.125600069953E+03   -0.13884E+00   -0.13750E+00 26436   0.293E+00    0.431E+01
DAV:   6    -0.118419818478E+03    0.71803E+01   -0.38723E+01 22944   0.258E+01    0.330E+01
DAV:   7    -0.157829500688E+03   -0.39410E+02   -0.16680E+02 29640   0.716E+01    0.559E+01
DAV:   8    -0.134648609198E+03    0.23181E+02   -0.70643E+01 29680   0.479E+01    0.385E+01
DAV:   9    -0.127894046642E+03    0.67546E+01   -0.82806E+01 25212   0.422E+01    0.292E+01
DAV:  10    -0.126370744754E+03    0.15233E+01   -0.43102E+01 30656   0.517E+01    0.278E+01
DAV:  11    -0.115984600531E+03    0.10386E+02   -0.23048E+01 27192   0.193E+01    0.988E+00
DAV:  12    -0.116447298845E+03   -0.46270E+00   -0.84808E+00 26812   0.148E+01    0.131E+01
DAV:  13    -0.115232517842E+03    0.12148E+01   -0.68295E+00 27168   0.915E+00    0.561E+00
DAV:  14    -0.115162526670E+03    0.69991E-01   -0.58173E-01 22336   0.359E+00    0.453E+00
DAV:  15    -0.115133521505E+03    0.29005E-01   -0.76569E-02 25596   0.127E+00    0.395E+00
DAV:  16    -0.115107033617E+03    0.26488E-01   -0.14162E-01 27716   0.157E+00    0.303E+00
DAV:  17    -0.115097117959E+03    0.99157E-02   -0.48245E-01 26344   0.237E+00    0.223E+00
DAV:  18    -0.115083952424E+03    0.13166E-01   -0.28640E-02 21236   0.761E-01    0.191E+00
DAV:  19    -0.115072414816E+03    0.11538E-01   -0.80373E-03 23904   0.368E-01    0.148E+00
DAV:  20    -0.115060418091E+03    0.11997E-01   -0.13997E-02 26976   0.525E-01    0.104E+00
DAV:  21    -0.115054271972E+03    0.61461E-02   -0.84162E-03 27072   0.366E-01    0.740E-01
DAV:  22    -0.115053628092E+03    0.64388E-03   -0.50994E-04 22224   0.908E-02    0.689E-01
DAV:  23    -0.115053037514E+03    0.59058E-03   -0.56060E-04 25840   0.105E-01    0.644E-01
DAV:  24    -0.115049853659E+03    0.31839E-02   -0.49080E-03 27584   0.257E-01    0.295E-01
DAV:  25    -0.115049276258E+03    0.57740E-03   -0.11118E-03 26960   0.127E-01    0.150E-01
DAV:  26    -0.115049185131E+03    0.91128E-04   -0.20153E-04 23536   0.594E-02    0.973E-02
DAV:  27    -0.115049209599E+03   -0.24468E-04   -0.18419E-04 22464   0.652E-02    0.457E-02
DAV:  28    -0.115049330582E+03   -0.12098E-03   -0.77391E-05 19924   0.369E-02    0.257E-02
DAV:  29    -0.115049455191E+03   -0.12461E-03   -0.16777E-05 12260   0.186E-02    0.205E-02
DAV:  30    -0.115049596526E+03   -0.14133E-03   -0.10110E-05 12420   0.121E-02    0.190E-02
DAV:  31    -0.115049699408E+03   -0.10288E-03   -0.11224E-05 12336   0.116E-02    0.241E-02
DAV:  32    -0.115049796978E+03   -0.97570E-04   -0.44726E-06 12328   0.878E-03    0.235E-02
DAV:  33    -0.115049894220E+03   -0.97242E-04   -0.52517E-06 12516   0.765E-03    0.193E-02
DAV:  34    -0.115049937896E+03   -0.43675E-04   -0.31654E-06 12280   0.710E-03    0.117E-02
DAV:  35    -0.115049992501E+03   -0.54605E-04   -0.50980E-06 12324   0.824E-03    0.518E-03
DAV:  36    -0.115050001611E+03   -0.91101E-05   -0.12280E-06 11280   0.441E-03
   1 F= -.11504310E+03 E0= -.11503217E+03  d E =-.327829E-01
