       N       E                     dE             d eps       ncg     rms          rms(c)
DAV:   1     0.102961816415E+04    0.10296E+04   -0.58323E+04 19296   0.103E+03
DAV:   2    -0.290919648026E+02   -0.10587E+04   -0.98474E+03 24024   0.259E+02
DAV:   3    -0.120688903849E+03   -0.91597E+02   -0.84696E+02 23088   0.759E+01
DAV:   4    -0.125130064041E+03   -0.44412E+01   -0.42301E+01 25648   0.170E+01
DAV:   5    -0.125262693337E+03   -0.13263E+00   -0.13148E+00 25520   0.290E+00    0.436E+01
DAV:   6    -0.118214145728E+03    0.70485E+01   -0.35628E+01 23328   0.249E+01    0.327E+01
DAV:   7    -0.141276126040E+03   -0.23062E+02   -0.10944E+02 23464   0.592E+01    0.454E+01
DAV:   8    -0.128212562648E+03    0.13064E+02   -0.62789E+01 25464   0.450E+01    0.317E+01
DAV:   9    -0.127700141713E+03    0.51242E+00   -0.55390E+01 30068   0.482E+01    0.276E+01
DAV:  10    -0.121243220801E+03    0.64569E+01   -0.54108E+01 27200   0.363E+01    0.231E+01
DAV:  11    -0.116105715739E+03    0.51375E+01   -0.14023E+01 28316   0.188E+01    0.921E+00
DAV:  12    -0.116367861565E+03   -0.26215E+00   -0.84399E+00 28076   0.131E+01    0.101E+01
DAV:  13    -0.115494648038E+03    0.87321E+00   -0.19259E+00 26684   0.677E+00    0.449E+00
DAV:  14    -0.115419017635E+03    0.75630E-01   -0.72917E-01 23400   0.382E+00    0.315E+00
DAV:  15    -0.115392952789E+03    0.26065E-01   -0.24414E-01 27224   0.219E+00    0.203E+00
DAV:  16    -0.115376928928E+03    0.16024E-01   -0.69773E-02 21312   0.131E+00    0.161E+00
DAV:  17    -0.115361718108E+03    0.15211E-01   -0.39652E-02 22256   0.883E-01    0.868E-01
DAV:  18    -0.115355063562E+03    0.66545E-02   -0.34052E-02 27144   0.873E-01    0.560E-01
DAV:  19    -0.115352929997E+03    0.21336E-02   -0.64001E-03 21148   0.365E-01    0.331E-01
DAV:  20    -0.115352127168E+03    0.80283E-03   -0.17806E-03 22336   0.198E-01    0.229E-01
DAV:  21    -0.115351565244E+03    0.56192E-03   -0.13746E-03 21344   0.164E-01    0.184E-01
DAV:  22    -0.115351128502E+03    0.43674E-03   -0.74255E-04 22320   0.125E-01    0.119E-01
DAV:  23    -0.115351017113E+03    0.11139E-03   -0.62300E-04 24864   0.960E-02    0.946E-02
DAV:  24    -0.115351049732E+03   -0.32619E-04   -0.13089E-04 21048   0.499E-02    0.613E-02
DAV:  25    -0.115351212961E+03   -0.16323E-03   -0.18515E-04 21632   0.587E-02    0.395E-02
DAV:  26    -0.115351375807E+03   -0.16285E-03   -0.11071E-04 20776   0.457E-02    0.375E-02
DAV:  27    -0.115351483473E+03   -0.10767E-03   -0.50127E-05 15952   0.271E-02    0.389E-02
DAV:  28    -0.115351587342E+03   -0.10387E-03   -0.14680E-05 13056   0.177E-02    0.331E-02
DAV:  29    -0.115351707480E+03   -0.12014E-03   -0.29600E-05 12592   0.227E-02    0.204E-02
DAV:  30    -0.115351833779E+03   -0.12630E-03   -0.12340E-05 12552   0.139E-02    0.171E-02
DAV:  31    -0.115351919595E+03   -0.85815E-04   -0.53073E-06 12440   0.899E-03    0.122E-02
DAV:  32    -0.115351998762E+03   -0.79168E-04   -0.71805E-06 12536   0.956E-03    0.125E-02
DAV:  33    -0.115352037724E+03   -0.38962E-04   -0.50317E-06 12320   0.869E-03    0.598E-03
DAV:  34    -0.115352061421E+03   -0.23697E-04   -0.15879E-06 12252   0.435E-03    0.445E-03
DAV:  35    -0.115352078445E+03   -0.17024E-04   -0.70645E-07 11668   0.303E-03    0.371E-03
DAV:  36    -0.115352090091E+03   -0.11646E-04   -0.42078E-07 11480   0.233E-03    0.258E-03
DAV:  37    -0.115352097056E+03   -0.69649E-05   -0.20269E-07 11240   0.164E-03
   1 F= -.11534417E+03 E0= -.11533592E+03  d E =-.247641E-01
