       N       E                     dE             d eps       ncg     rms          rms(c)
DAV:   1     0.103016406572E+04    0.10302E+04   -0.58322E+04 19288   0.103E+03
DAV:   2    -0.289999739667E+02   -0.10592E+04   -0.98594E+03 24080   0.259E+02
DAV:   3    -0.120395689899E+03   -0.91396E+02   -0.84500E+02 23088   0.758E+01
DAV:   4    -0.124826661832E+03   -0.44310E+01   -0.42074E+01 25472   0.169E+01
DAV:   5    -0.124962570269E+03   -0.13591E+00   -0.13478E+00 25688   0.293E+00    0.436E+01
DAV:   6    -0.117957349021E+03    0.70052E+01   -0.35145E+01 22972   0.252E+01    0.328E+01
DAV:   7    -0.138759325421E+03   -0.20802E+02   -0.96246E+01 24692   0.576E+01    0.446E+01
DAV:   8    -0.119318657007E+03    0.19441E+02   -0.38583E+01 25716   0.333E+01    0.195E+01
DAV:   9    -0.125440272529E+03   -0.61216E+01   -0.63584E+01 24692   0.368E+01    0.283E+01
DAV:  10    -0.124079035909E+03    0.13612E+01   -0.36315E+01 27248   0.380E+01    0.280E+01
DAV:  11    -0.116678612743E+03    0.74004E+01   -0.29165E+01 33792   0.278E+01    0.137E+01
DAV:  12    -0.115010158210E+03    0.16685E+01   -0.66209E+00 21812   0.113E+01    0.525E+00
DAV:  13    -0.114870570122E+03    0.13959E+00   -0.14255E+00 22028   0.506E+00    0.320E+00
DAV:  14    -0.114854375253E+03    0.16195E-01   -0.11626E-01 21256   0.150E+00    0.253E+00
DAV:  15    -0.114845952705E+03    0.84225E-02   -0.69809E-02 23344   0.113E+00    0.214E+00
DAV:  16    -0.114827599093E+03    0.18354E-01   -0.94482E-02 21648   0.150E+00    0.124E+00
DAV:  17    -0.114815760798E+03    0.11838E-01   -0.44599E-02 21412   0.100E+00    0.509E-01
DAV:  18    -0.114814843047E+03    0.91775E-03   -0.83539E-03 26536   0.435E-01    0.430E-01
DAV:  19    -0.114814778781E+03    0.64266E-04   -0.71395E-03 27948   0.392E-01    0.530E-01
DAV:  20    -0.114813376543E+03    0.14022E-02   -0.59253E-03 27632   0.319E-01    0.197E-01
DAV:  21    -0.114813275432E+03    0.10111E-03   -0.11562E-03 21680   0.171E-01    0.141E-01
DAV:  22    -0.114813079365E+03    0.19607E-03   -0.50826E-04 22856   0.940E-02    0.900E-02
DAV:  23    -0.114813045219E+03    0.34146E-04   -0.16382E-04 21584   0.561E-02    0.632E-02
DAV:  24    -0.114813229150E+03   -0.18393E-03   -0.33297E-04 21740   0.708E-02    0.871E-02
DAV:  25    -0.114813326163E+03   -0.97013E-04   -0.12686E-04 21036   0.482E-02    0.553E-02
DAV:  26    -0.114813442639E+03   -0.11648E-03   -0.11436E-04 18192   0.407E-02    0.278E-02
DAV:  27    -0.114813526477E+03   -0.83838E-04   -0.24353E-05 12820   0.205E-02    0.273E-02
DAV:  28    -0.114813624205E+03   -0.97728E-04   -0.11346E-05 12396   0.166E-02    0.191E-02
DAV:  29    -0.114813795820E+03   -0.17162E-03   -0.17035E-05 13804   0.133E-02    0.157E-02
DAV:  30    -0.114813900776E+03   -0.10496E-03   -0.68851E-06 12808   0.102E-02    0.153E-02
DAV:  31    -0.114813993812E+03   -0.93036E-04   -0.80024E-06 13360   0.916E-03    0.162E-02
DAV:  32    -0.114814037990E+03   -0.44177E-04   -0.48356E-06 12520   0.816E-03    0.576E-03
DAV:  33    -0.114814091483E+03   -0.53494E-04   -0.28133E-06 12540   0.503E-03    0.306E-03
DAV:  34    -0.114814116042E+03   -0.24559E-04   -0.10409E-06 12216   0.353E-03    0.428E-03
DAV:  35    -0.114814135327E+03   -0.19285E-04   -0.55741E-07 11712   0.240E-03    0.367E-03
DAV:  36    -0.114814146792E+03   -0.11465E-04   -0.35615E-07 11616   0.189E-03    0.256E-03
DAV:  37    -0.114814152850E+03   -0.60571E-05   -0.19198E-07 11348   0.139E-03
   1 F= -.11480230E+03 E0= -.11479218E+03  d E =-.303557E-01
