       N       E                     dE             d eps       ncg     rms          rms(c)
DAV:   1     0.111471267526E+04    0.11147E+04   -0.79039E+04  5888   0.934E+02
DAV:   2    -0.635022303145E+02   -0.11782E+04   -0.11056E+04  6512   0.250E+02
DAV:   3    -0.120361329705E+03   -0.56859E+02   -0.53679E+02  6512   0.519E+01
DAV:   4    -0.121539895626E+03   -0.11786E+01   -0.11730E+01  6688   0.786E+00
DAV:   5    -0.121579673179E+03   -0.39778E-01   -0.39771E-01  7048   0.132E+00    0.295E+01
DAV:   6    -0.116839842303E+03    0.47398E+01   -0.17311E+01  6464   0.144E+01    0.165E+01
DAV:   7    -0.162626710583E+03   -0.45787E+02   -0.54422E+01  6696   0.602E+01    0.495E+01
DAV:   8    -0.121368370503E+03    0.41258E+02   -0.42644E+01  6944   0.307E+01    0.213E+01
DAV:   9    -0.120508165940E+03    0.86020E+00   -0.18168E+01  6240   0.245E+01    0.210E+01
DAV:  10    -0.120055944015E+03    0.45222E+00   -0.24339E+01  6280   0.208E+01    0.161E+01
DAV:  11    -0.117842081864E+03    0.22139E+01   -0.53837E+00  6256   0.129E+01    0.129E+01
DAV:  12    -0.116729365597E+03    0.11127E+01   -0.17846E+00  6192   0.814E+00    0.908E+00
DAV:  13    -0.116336994132E+03    0.39237E+00   -0.31594E+00  6312   0.671E+00    0.729E+00
DAV:  14    -0.116009064786E+03    0.32793E+00   -0.10532E+00  6208   0.459E+00    0.287E+00
DAV:  15    -0.115982757310E+03    0.26307E-01   -0.26208E-01  6112   0.236E+00    0.240E+00
DAV:  16    -0.115995865444E+03   -0.13108E-01   -0.56615E-02  6024   0.120E+00    0.278E+00
DAV:  17    -0.115969667355E+03    0.26198E-01   -0.32372E-02  6208   0.878E-01    0.202E+00
DAV:  18    -0.115942878375E+03    0.26789E-01   -0.51948E-02  6128   0.107E+00    0.926E-01
DAV:  19    -0.115938497347E+03    0.43810E-02   -0.12608E-02  6168   0.494E-01    0.496E-01
DAV:  20    -0.115936386562E+03    0.21108E-02   -0.49832E-03  6256   0.336E-01    0.142E-01
DAV:  21    -0.115936309789E+03    0.76773E-04   -0.14467E-03  6152   0.142E-01    0.144E-01
DAV:  22    -0.115936225931E+03    0.83858E-04   -0.52603E-04  5040   0.120E-01
   1 F= -.11593623E+03 E0= -.11578934E+03  d E =-.115936E+03
       N       E                     dE             d eps       ncg     rms          rms(c)
DAV:   1    -0.115302207388E+03    0.63410E+00   -0.12159E+02  5800   0.204E+01    0.365E+00
DAV:   2    -0.115341537640E+03   -0.39330E-01   -0.24818E+00  6088   0.435E+00    0.340E+00
DAV:   3    -0.116572360411E+03   -0.12308E+01   -0.39311E+00  6640   0.851E+00    0.113E+01
DAV:   4    -0.115367439635E+03    0.12049E+01   -0.29189E+00  6248   0.791E+00    0.370E+00
DAV:   5    -0.115358726110E+03    0.87135E-02   -0.56833E-01  6224   0.445E+00    0.393E+00
DAV:   6    -0.115320901311E+03    0.37825E-01   -0.64881E-01  6128   0.433E+00    0.316E+00
DAV:   7    -0.115223655140E+03    0.97246E-01   -0.19594E-01  6392   0.269E+00    0.129E+00
DAV:   8    -0.115211793889E+03    0.11861E-01   -0.64501E-02  6088   0.134E+00    0.679E-01
DAV:   9    -0.115210027549E+03    0.17663E-02   -0.16815E-02  6048   0.605E-01    0.346E-01
DAV:  10    -0.115210416697E+03   -0.38915E-03   -0.46716E-03  6032   0.357E-01    0.251E-01
DAV:  11    -0.115210812021E+03   -0.39532E-03   -0.17127E-03  5920   0.215E-01    0.169E-01
DAV:  12    -0.115211584419E+03   -0.77240E-03   -0.97094E-04  5816   0.164E-01    0.168E-01
DAV:  13    -0.115211941120E+03   -0.35670E-03   -0.80912E-04  4952   0.144E-01    0.728E-02
DAV:  14    -0.115212180151E+03   -0.23903E-03   -0.12879E-04  3968   0.547E-02    0.328E-02
DAV:  15    -0.115212372557E+03   -0.19241E-03   -0.54667E-05  3808   0.382E-02    0.273E-02
DAV:  16    -0.115212784343E+03   -0.41179E-03   -0.10323E-04  4136   0.269E-02    0.158E-02
DAV:  17    -0.115212956974E+03   -0.17263E-03   -0.42108E-05  3912   0.242E-02    0.185E-02
DAV:  18    -0.115213154718E+03   -0.19774E-03   -0.42033E-05  3976   0.194E-02    0.824E-03
DAV:  19    -0.115213214791E+03   -0.60074E-04   -0.10022E-05  3856   0.113E-02
   2 F= -.11521321E+03 E0= -.11507185E+03  d E =0.723011E+00
       N       E                     dE             d eps       ncg     rms          rms(c)
DAV:   1    -0.115893088879E+03   -0.67993E+00   -0.77980E+01  5832   0.193E+01    0.288E+00
DAV:   2    -0.116109819492E+03   -0.21673E+00   -0.30857E+00  6144   0.372E+00    0.270E+00
DAV:   3    -0.116887413371E+03   -0.77759E+00   -0.26278E+00  6376   0.622E+00    0.101E+01
DAV:   4    -0.116061859880E+03    0.82555E+00   -0.19700E+00  6256   0.599E+00    0.207E+00
DAV:   5    -0.116077764690E+03   -0.15905E-01   -0.32026E-01  6024   0.302E+00    0.271E+00
DAV:   6    -0.116033537967E+03    0.44227E-01   -0.26288E-01  6224   0.261E+00    0.190E+00
DAV:   7    -0.116011837290E+03    0.21701E-01   -0.13469E-01  6088   0.188E+00    0.135E+00
DAV:   8    -0.115999059038E+03    0.12778E-01   -0.49342E-02  6056   0.115E+00    0.551E-01
DAV:   9    -0.115996257466E+03    0.28016E-02   -0.67679E-03  6048   0.482E-01    0.304E-01
DAV:  10    -0.115996190580E+03    0.66886E-04   -0.22789E-03  6128   0.255E-01    0.297E-01
DAV:  11    -0.115995392262E+03    0.79832E-03   -0.19493E-03  5944   0.230E-01    0.921E-02
DAV:  12    -0.115995384288E+03    0.79743E-05   -0.44035E-04  4584   0.107E-01
   3 F= -.11599538E+03 E0= -.11584935E+03  d E =-.591584E-01
       N       E                     dE             d eps       ncg     rms          rms(c)
DAV:   1    -0.116183346782E+03   -0.18795E+00   -0.97607E+01  5760   0.213E+01    0.190E+00
DAV:   2    -0.116335080644E+03   -0.15173E+00   -0.16979E+00  6208   0.334E+00    0.240E+00
DAV:   3    -0.116681625421E+03   -0.34654E+00   -0.16488E+00  6328   0.491E+00    0.686E+00
DAV:   4    -0.116335656869E+03    0.34597E+00   -0.10034E+00  6248   0.384E+00    0.233E+00
DAV:   5    -0.116293843840E+03    0.41813E-01   -0.12361E-01  6176   0.187E+00    0.106E+00
DAV:   6    -0.116298517367E+03   -0.46735E-02   -0.52259E-02  6072   0.124E+00    0.105E+00
DAV:   7    -0.116292297532E+03    0.62198E-02   -0.45085E-02  6080   0.119E+00    0.623E-01
DAV:   8    -0.116291816010E+03    0.48152E-03   -0.19971E-02  6080   0.738E-01    0.504E-01
DAV:   9    -0.116289369870E+03    0.24461E-02   -0.62376E-03  6032   0.456E-01    0.167E-01
DAV:  10    -0.116289219344E+03    0.15053E-03   -0.95629E-04  5752   0.164E-01    0.977E-02
DAV:  11    -0.116289206207E+03    0.13137E-04   -0.32813E-04  4616   0.760E-02
   4 F= -.11628921E+03 E0= -.11614630E+03  d E =-.293822E+00
       N       E                     dE             d eps       ncg     rms          rms(c)
DAV:   1    -0.116260695955E+03    0.28523E-01   -0.25664E+02  5760   0.347E+01    0.332E+00
DAV:   2    -0.116597113751E+03   -0.33642E+00   -0.45320E+00  6288   0.535E+00    0.243E+00
DAV:   3    -0.116882194769E+03   -0.28508E+00   -0.11415E+00  6168   0.425E+00    0.645E+00
DAV:   4    -0.116618080881E+03    0.26411E+00   -0.13677E+00  6184   0.473E+00    0.289E+00
DAV:   5    -0.116611758253E+03    0.63226E-02   -0.55820E-01  6104   0.332E+00    0.261E+00
DAV:   6    -0.116592626294E+03    0.19132E-01   -0.31531E-01  6240   0.273E+00    0.220E+00
DAV:   7    -0.116570553514E+03    0.22073E-01   -0.19384E-01  6048   0.214E+00    0.153E+00
DAV:   8    -0.116558215588E+03    0.12338E-01   -0.81885E-02  6104   0.157E+00    0.914E-01
DAV:   9    -0.116551152155E+03    0.70634E-02   -0.17829E-02  5984   0.768E-01    0.383E-01
DAV:  10    -0.116550124367E+03    0.10278E-02   -0.43783E-03  6120   0.347E-01    0.204E-01
DAV:  11    -0.116549970008E+03    0.15436E-03   -0.15811E-03  5928   0.171E-01    0.109E-01
DAV:  12    -0.116549926613E+03    0.43395E-04   -0.39372E-04  4496   0.110E-01
   5 F= -.11654993E+03 E0= -.11641190E+03  d E =-.554542E+00
       N       E                     dE             d eps       ncg     rms          rms(c)
DAV:   1    -0.116056159035E+03    0.49381E+00   -0.11371E+02  5760   0.217E+01    0.298E+00
DAV:   2    -0.116245242868E+03   -0.18908E+00   -0.24295E+00  5984   0.327E+00    0.230E+00
DAV:   3    -0.117496649973E+03   -0.12514E+01   -0.37858E+00  6584   0.843E+00    0.106E+01
DAV:   4    -0.116411324042E+03    0.10853E+01   -0.26907E+00  6624   0.696E+00    0.474E+00
DAV:   5    -0.116208175779E+03    0.20315E+00   -0.48804E-01  6288   0.380E+00    0.192E+00
DAV:   6    -0.116197113450E+03    0.11062E-01   -0.17548E-01  6112   0.219E+00    0.147E+00
DAV:   7    -0.116188047225E+03    0.90662E-02   -0.70530E-02  6032   0.156E+00    0.103E+00
DAV:   8    -0.116177607153E+03    0.10440E-01   -0.20952E-02  5984   0.874E-01    0.304E-01
DAV:   9    -0.116178232398E+03   -0.62525E-03   -0.55582E-03  6056   0.365E-01    0.384E-01
DAV:  10    -0.116177147528E+03    0.10849E-02   -0.35292E-03  6096   0.312E-01    0.186E-01
DAV:  11    -0.116177070558E+03    0.76971E-04   -0.17232E-03  5080   0.184E-01    0.156E-01
DAV:  12    -0.116176990143E+03    0.80414E-04   -0.31942E-04  4216   0.100E-01
   6 F= -.11617699E+03 E0= -.11603859E+03  d E =0.372936E+00
       N       E                     dE             d eps       ncg     rms          rms(c)
DAV:   1    -0.116613171131E+03   -0.43610E+00   -0.51086E+01  5760   0.132E+01    0.214E+00
DAV:   2    -0.116655430530E+03   -0.42259E-01   -0.85100E-01  6008   0.225E+00    0.173E+00
DAV:   3    -0.117398995798E+03   -0.74357E+00   -0.21964E+00  6672   0.617E+00    0.934E+00
DAV:   4    -0.116670676775E+03    0.72832E+00   -0.21685E+00  6336   0.557E+00    0.237E+00
DAV:   5    -0.116671019744E+03   -0.34297E-03   -0.29755E-01  6120   0.248E+00    0.236E+00
DAV:   6    -0.116632802057E+03    0.38218E-01   -0.10953E-01  6128   0.168E+00    0.108E+00
DAV:   7    -0.116627956598E+03    0.48455E-02   -0.35937E-02  6080   0.102E+00    0.777E-01
DAV:   8    -0.116623128876E+03    0.48277E-02   -0.11985E-02  6080   0.677E-01    0.277E-01
DAV:   9    -0.116623112663E+03    0.16213E-04   -0.38192E-03  6136   0.315E-01    0.238E-01
DAV:  10    -0.116622920249E+03    0.19241E-03   -0.15673E-03  5864   0.222E-01    0.138E-01
DAV:  11    -0.116623186578E+03   -0.26633E-03   -0.55098E-04  4848   0.120E-01    0.104E-01
DAV:  12    -0.116623179433E+03    0.71459E-05   -0.23938E-04  3888   0.960E-02
   7 F= -.11662318E+03 E0= -.11648518E+03  d E =-.732528E-01
       N       E                     dE             d eps       ncg     rms          rms(c)
DAV:   1    -0.116668371570E+03   -0.45185E-01   -0.10702E+01  5760   0.712E+00    0.566E-01
DAV:   2    -0.116689315580E+03   -0.20944E-01   -0.17988E-01  6072   0.120E+00    0.103E+00
DAV:   3    -0.116698846548E+03   -0.95310E-02   -0.13683E-01  6184   0.137E+00    0.152E+00
DAV:   4    -0.116688151530E+03    0.10695E-01   -0.81770E-02  6040   0.106E+00    0.963E-01
DAV:   5    -0.116681040240E+03    0.71113E-02   -0.16690E-02  5936   0.637E-01    0.282E-01
DAV:   6    -0.116681843719E+03   -0.80348E-03   -0.51489E-03  5960   0.394E-01    0.314E-01
DAV:   7    -0.116681506255E+03    0.33746E-03   -0.37965E-03  5936   0.346E-01    0.193E-01
DAV:   8    -0.116681420722E+03    0.85533E-04   -0.17175E-03  5776   0.232E-01    0.139E-01
DAV:   9    -0.116681279785E+03    0.14094E-03   -0.48416E-04  4088   0.126E-01    0.590E-02
DAV:  10    -0.116681259684E+03    0.20102E-04   -0.11831E-04  3712   0.551E-02
   8 F= -.11668126E+03 E0= -.11654406E+03  d E =-.580803E-01
       N       E                     dE             d eps       ncg     rms          rms(c)
DAV:   1    -0.116640580525E+03    0.40699E-01   -0.90841E+01  5760   0.208E+01    0.162E+00
DAV:   2    -0.116806509573E+03   -0.16593E+00   -0.15145E+00  6224   0.334E+00    0.260E+00
DAV:   3    -0.116920307433E+03   -0.11380E+00   -0.10304E+00  6264   0.388E+00    0.452E+00
DAV:   4    -0.116817788863E+03    0.10252E+00   -0.60974E-01  6192   0.298E+00    0.282E+00
DAV:   5    -0.116752729371E+03    0.65059E-01   -0.13139E-01  6056   0.179E+00    0.772E-01
DAV:   6    -0.116761300770E+03   -0.85714E-02   -0.47398E-02  6096   0.117E+00    0.110E+00
DAV:   7    -0.116754612667E+03    0.66881E-02   -0.39756E-02  5992   0.116E+00    0.619E-01
DAV:   8    -0.116753046076E+03    0.15666E-02   -0.15316E-02  6040   0.699E-01    0.397E-01
DAV:   9    -0.116751553955E+03    0.14921E-02   -0.40421E-03  6112   0.353E-01    0.134E-01
DAV:  10    -0.116751443899E+03    0.11006E-03   -0.85056E-04  5592   0.143E-01    0.899E-02
DAV:  11    -0.116751392041E+03    0.51858E-04   -0.32085E-04  3688   0.845E-02
   9 F= -.11675139E+03 E0= -.11661627E+03  d E =-.128213E+00
       N       E                     dE             d eps       ncg     rms          rms(c)
DAV:   1    -0.116716580292E+03    0.34864E-01   -0.59142E+00  5760   0.488E+00    0.823E-01
DAV:   2    -0.116730615352E+03   -0.14035E-01   -0.14825E-01  6080   0.113E+00    0.119E+00
DAV:   3    -0.116771989048E+03   -0.41374E-01   -0.26529E-01  6224   0.190E+00    0.258E+00
DAV:   4    -0.116727956557E+03    0.44032E-01   -0.17034E-01  6120   0.157E+00    0.107E+00
DAV:   5    -0.116724045703E+03    0.39109E-02   -0.43690E-02  6096   0.105E+00    0.837E-01
DAV:   6    -0.116720751231E+03    0.32945E-02   -0.26886E-02  5976   0.920E-01    0.602E-01
DAV:   7    -0.116717683516E+03    0.30677E-02   -0.10293E-02  6144   0.539E-01    0.322E-01
DAV:   8    -0.116716870861E+03    0.81266E-03   -0.27836E-03  5944   0.292E-01    0.137E-01
DAV:   9    -0.116716928896E+03   -0.58035E-04   -0.49087E-04  4320   0.115E-01
  10 F= -.11671693E+03 E0= -.11658282E+03  d E =0.344631E-01
       N       E                     dE             d eps       ncg     rms          rms(c)
DAV:   1    -0.116753925073E+03   -0.37054E-01   -0.33110E+00  5768   0.373E+00    0.614E-01
DAV:   2    -0.116765665065E+03   -0.11740E-01   -0.98889E-02  5952   0.959E-01    0.103E+00
DAV:   3    -0.116776521521E+03   -0.10856E-01   -0.12127E-01  6368   0.133E+00    0.152E+00
DAV:   4    -0.116760228027E+03    0.16293E-01   -0.82278E-02  6184   0.105E+00    0.655E-01
DAV:   5    -0.116763428914E+03   -0.32009E-02   -0.26543E-02  6064   0.810E-01    0.864E-01
DAV:   6    -0.116759316266E+03    0.41126E-02   -0.18648E-02  6040   0.693E-01    0.543E-01
DAV:   7    -0.116757006117E+03    0.23101E-02   -0.77060E-03  6000   0.491E-01    0.270E-01
DAV:   8    -0.116756329525E+03    0.67659E-03   -0.16912E-03  5872   0.245E-01    0.615E-02
DAV:   9    -0.116756332946E+03   -0.34206E-05   -0.22143E-04  3960   0.684E-02
  11 F= -.11675633E+03 E0= -.11662155E+03  d E =-.494091E-02
       N       E                     dE             d eps       ncg     rms          rms(c)
DAV:   1    -0.116766569679E+03   -0.10240E-01   -0.43020E+00  5768   0.459E+00    0.305E-01
DAV:   2    -0.116772786586E+03   -0.62169E-02   -0.61547E-02  6128   0.742E-01    0.381E-01
DAV:   3    -0.116773919900E+03   -0.11333E-02   -0.12987E-02  6080   0.558E-01    0.501E-01
DAV:   4    -0.116778227398E+03   -0.43075E-02   -0.38247E-02  6176   0.720E-01    0.946E-01
DAV:   5    -0.116772367322E+03    0.58601E-02   -0.16659E-02  5864   0.466E-01    0.343E-01
DAV:   6    -0.116771928092E+03    0.43923E-03   -0.25101E-03  5728   0.254E-01    0.244E-01
DAV:   7    -0.116771787882E+03    0.14021E-03   -0.20647E-03  6032   0.229E-01    0.188E-01
DAV:   8    -0.116771548361E+03    0.23952E-03   -0.10371E-03  5376   0.178E-01    0.766E-02
DAV:   9    -0.116771529313E+03    0.19048E-04   -0.27279E-04  3624   0.858E-02
  12 F= -.11677153E+03 E0= -.11663681E+03  d E =-.151964E-01
       N       E                     dE             d eps       ncg     rms          rms(c)
DAV:   1    -0.116745775913E+03    0.25772E-01   -0.38743E+01  5760   0.138E+01    0.941E-01
DAV:   2    -0.116797874476E+03   -0.52099E-01   -0.55062E-01  6168   0.215E+00    0.902E-01
DAV:   3    -0.116804328118E+03   -0.64536E-02   -0.78944E-02  6136   0.134E+00    0.141E+00
DAV:   4    -0.116817002346E+03   -0.12674E-01   -0.15983E-01  6208   0.144E+00    0.170E+00
DAV:   5    -0.116799535950E+03    0.17466E-01   -0.15944E-01  6192   0.157E+00    0.108E+00
DAV:   6    -0.116794167264E+03    0.53687E-02   -0.24745E-02  5992   0.739E-01    0.644E-01
DAV:   7    -0.116792022152E+03    0.21451E-02   -0.14621E-02  6128   0.605E-01    0.354E-01
DAV:   8    -0.116791803304E+03    0.21885E-03   -0.64860E-03  5960   0.403E-01    0.326E-01
DAV:   9    -0.116791251377E+03    0.55193E-03   -0.27284E-03  5760   0.269E-01    0.199E-01
DAV:  10    -0.116790916414E+03    0.33496E-03   -0.67318E-04  4000   0.140E-01    0.562E-02
DAV:  11    -0.116790909775E+03    0.66391E-05   -0.12317E-04  3592   0.500E-02
  13 F= -.11679091E+03 E0= -.11665650E+03  d E =-.345768E-01
       N       E                     dE             d eps       ncg     rms          rms(c)
DAV:   1    -0.116791329693E+03   -0.41328E-03   -0.68383E+00  5760   0.570E+00    0.365E-01
DAV:   2    -0.116801722370E+03   -0.10393E-01   -0.10097E-01  6040   0.922E-01    0.589E-01
DAV:   3    -0.116816673507E+03   -0.14951E-01   -0.83537E-02  6184   0.105E+00    0.150E+00
DAV:   4    -0.116799782823E+03    0.16891E-01   -0.57220E-02  6128   0.905E-01    0.335E-01
DAV:   5    -0.116799471139E+03    0.31168E-03   -0.43473E-03  6160   0.333E-01    0.271E-01
DAV:   6    -0.116799446668E+03    0.24472E-04   -0.30898E-03  5984   0.282E-01    0.256E-01
DAV:   7    -0.116799523432E+03   -0.76764E-04   -0.25767E-03  5920   0.280E-01    0.255E-01
DAV:   8    -0.116799064299E+03    0.45913E-03   -0.14171E-03  5856   0.213E-01    0.799E-02
DAV:   9    -0.116799066171E+03   -0.18717E-05   -0.39852E-04  3816   0.100E-01
  14 F= -.11679907E+03 E0= -.11666478E+03  d E =-.815640E-02
       N       E                     dE             d eps       ncg     rms          rms(c)
DAV:   1    -0.116798430222E+03    0.63408E-03   -0.10038E+00  5760   0.219E+00    0.143E-01
DAV:   2    -0.116799709677E+03   -0.12795E-02   -0.14393E-02  5992   0.339E-01    0.131E-01
DAV:   3    -0.116800660075E+03   -0.95040E-03   -0.45779E-03  6032   0.267E-01    0.390E-01
DAV:   4    -0.116799698220E+03    0.96185E-03   -0.47594E-03  3880   0.250E-01    0.141E-01
DAV:   5    -0.116799625849E+03    0.72371E-04   -0.87966E-04  3728   0.140E-01
  15 F= -.11679963E+03 E0= -.11666537E+03  d E =-.871607E-02
       N       E                     dE             d eps       ncg     rms          rms(c)
DAV:   1    -0.116800800473E+03   -0.11023E-02   -0.14181E+00  5760   0.262E+00    0.244E-01
DAV:   2    -0.116809780636E+03   -0.89802E-02   -0.41415E-02  5880   0.737E-01    0.959E-01
DAV:   3    -0.116806087985E+03    0.36927E-02   -0.41237E-02  6032   0.791E-01    0.691E-01
DAV:   4    -0.116802833681E+03    0.32543E-02   -0.16127E-02  5968   0.498E-01    0.273E-01
DAV:   5    -0.116802451378E+03    0.38230E-03   -0.11438E-03  5912   0.159E-01    0.121E-01
DAV:   6    -0.116802548328E+03   -0.96950E-04   -0.92769E-04  4760   0.170E-01
  16 F= -.11680255E+03 E0= -.11666835E+03  d E =-.292248E-02
       N       E                     dE             d eps       ncg     rms          rms(c)
DAV:   1    -0.116802418771E+03    0.32606E-04   -0.31116E-02  6000   0.412E-01    0.861E-02
DAV:   2    -0.116809431779E+03   -0.70130E-02   -0.22164E-02  6296   0.558E-01    0.945E-01
DAV:   3    -0.116802635092E+03    0.67967E-02   -0.24198E-02  5704   0.556E-01    0.193E-01
DAV:   4    -0.116802419937E+03    0.21515E-03   -0.11157E-03  4352   0.153E-01    0.596E-02
DAV:   5    -0.116802431201E+03   -0.11264E-04   -0.20582E-04  3680   0.717E-02
  17 F= -.11680243E+03 E0= -.11666811E+03  d E =-.280535E-02
       N       E                     dE             d eps       ncg     rms          rms(c)
DAV:   1    -0.116803213105E+03   -0.79317E-03   -0.92696E-02  5848   0.670E-01    0.707E-02
DAV:   2    -0.116803781134E+03   -0.56803E-03   -0.23784E-03  5992   0.209E-01    0.229E-01
DAV:   3    -0.116803656478E+03    0.12466E-03   -0.31915E-03  4664   0.235E-01    0.225E-01
DAV:   4    -0.116803348232E+03    0.30825E-03   -0.17595E-03  3544   0.149E-01    0.935E-02
DAV:   5    -0.116803339165E+03    0.90675E-05   -0.32818E-04  3504   0.861E-02
  18 F= -.11680334E+03 E0= -.11666910E+03  d E =-.907963E-03
       N       E                     dE             d eps       ncg     rms          rms(c)
DAV:   1    -0.116804771083E+03   -0.14229E-02   -0.83375E-01  5760   0.200E+00    0.180E-01
DAV:   2    -0.116805886435E+03   -0.11154E-02   -0.12032E-02  6104   0.312E-01    0.201E-01
DAV:   3    -0.116807246600E+03   -0.13602E-02   -0.66725E-03  5968   0.335E-01    0.464E-01
DAV:   4    -0.116806305048E+03    0.94155E-03   -0.10383E-02  5192   0.375E-01    0.300E-01
DAV:   5    -0.116805947662E+03    0.35739E-03   -0.34742E-03  4536   0.247E-01    0.202E-01
DAV:   6    -0.116805777507E+03    0.17015E-03   -0.11180E-03  4080   0.187E-01    0.116E-01
DAV:   7    -0.116805785192E+03   -0.76856E-05   -0.70698E-04  4096   0.140E-01
  19 F= -.11680579E+03 E0= -.11667157E+03  d E =-.335399E-02
       N       E                     dE             d eps       ncg     rms          rms(c)
DAV:   1    -0.116805077930E+03    0.69958E-03   -0.33319E+00  5760   0.401E+00    0.340E-01
DAV:   2    -0.116809737430E+03   -0.46595E-02   -0.49052E-02  6168   0.626E-01    0.372E-01
DAV:   3    -0.116816107227E+03   -0.63698E-02   -0.30025E-02  6160   0.672E-01    0.962E-01
DAV:   4    -0.116810013329E+03    0.60939E-02   -0.35397E-02  6120   0.691E-01    0.426E-01
DAV:   5    -0.116809931618E+03    0.81710E-04   -0.81340E-03  5792   0.393E-01    0.378E-01
DAV:   6    -0.116809145606E+03    0.78601E-03   -0.40426E-03  5664   0.358E-01    0.213E-01
DAV:   7    -0.116809258253E+03   -0.11265E-03   -0.20215E-03  5824   0.247E-01    0.198E-01
DAV:   8    -0.116808953884E+03    0.30437E-03   -0.96175E-04  4832   0.184E-01    0.542E-02
DAV:   9    -0.116808967777E+03   -0.13893E-04   -0.24205E-04  3656   0.807E-02
  20 F= -.11680897E+03 E0= -.11667522E+03  d E =-.653658E-02
       N       E                     dE             d eps       ncg     rms          rms(c)
DAV:   1    -0.116793275258E+03    0.15679E-01   -0.13330E+01  5760   0.802E+00    0.665E-01
DAV:   2    -0.116814977864E+03   -0.21703E-01   -0.20220E-01  6320   0.125E+00    0.924E-01
DAV:   3    -0.116849245929E+03   -0.34268E-01   -0.18678E-01  6184   0.161E+00    0.224E+00
DAV:   4    -0.116812818780E+03    0.36427E-01   -0.14702E-01  6136   0.142E+00    0.731E-01
DAV:   5    -0.116813106748E+03   -0.28797E-03   -0.26211E-02  6016   0.780E-01    0.712E-01
DAV:   6    -0.116809832236E+03    0.32745E-02   -0.13064E-02  5968   0.677E-01    0.350E-01
DAV:   7    -0.116810617783E+03   -0.78555E-03   -0.67135E-03  6104   0.449E-01    0.387E-01
DAV:   8    -0.116809362044E+03    0.12557E-02   -0.37487E-03  6008   0.359E-01    0.889E-02
DAV:   9    -0.116809405293E+03   -0.43250E-04   -0.68253E-04  4920   0.138E-01
  21 F= -.11680941E+03 E0= -.11667638E+03  d E =-.697409E-02
       N       E                     dE             d eps       ncg     rms          rms(c)
DAV:   1    -0.116794473075E+03    0.14889E-01   -0.27394E+00  5760   0.361E+00    0.505E-01
DAV:   2    -0.116798130526E+03   -0.36575E-02   -0.55109E-02  5952   0.594E-01    0.302E-01
DAV:   3    -0.116821482087E+03   -0.23352E-01   -0.75321E-02  6088   0.105E+00    0.175E+00
DAV:   4    -0.116799438374E+03    0.22044E-01   -0.93317E-02  6144   0.110E+00    0.568E-01
DAV:   5    -0.116798514028E+03    0.92435E-03   -0.16029E-02  6048   0.531E-01    0.437E-01
DAV:   6    -0.116797414749E+03    0.10993E-02   -0.59879E-03  5936   0.420E-01    0.256E-01
DAV:   7    -0.116796981428E+03    0.43332E-03   -0.18110E-03  5800   0.234E-01    0.150E-01
DAV:   8    -0.116796770655E+03    0.21077E-03   -0.52396E-04  3984   0.137E-01    0.481E-02
DAV:   9    -0.116796780065E+03   -0.94108E-05   -0.11621E-04  3560   0.553E-02
  22 F= -.11679678E+03 E0= -.11666319E+03  d E =0.126252E-01
       N       E                     dE             d eps       ncg     rms          rms(c)
DAV:   1    -0.116809324820E+03   -0.12554E-01   -0.16484E+00  5760   0.277E+00    0.381E-01
DAV:   2    -0.116811236528E+03   -0.19117E-02   -0.30945E-02  5960   0.452E-01    0.230E-01
DAV:   3    -0.116826502129E+03   -0.15266E-01   -0.49271E-02  6112   0.823E-01    0.139E+00
DAV:   4    -0.116811236212E+03    0.15266E-01   -0.54124E-02  6120   0.834E-01    0.289E-01
DAV:   5    -0.116811234426E+03    0.17855E-05   -0.50657E-03  5952   0.336E-01    0.277E-01
DAV:   6    -0.116811108783E+03    0.12564E-03   -0.34244E-03  5616   0.314E-01    0.243E-01
DAV:   7    -0.116810674331E+03    0.43445E-03   -0.11911E-03  4736   0.198E-01    0.118E-01
DAV:   8    -0.116810559709E+03    0.11462E-03   -0.29726E-04  3768   0.978E-02    0.284E-02
DAV:   9    -0.116810564764E+03   -0.50548E-05   -0.39370E-05  3656   0.309E-02
  23 F= -.11681056E+03 E0= -.11667734E+03  d E =-.115947E-02
       N       E                     dE             d eps       ncg     rms          rms(c)
DAV:   1    -0.116811796078E+03   -0.12364E-02   -0.20723E+00  5760   0.309E+00    0.165E-01
DAV:   2    -0.116814659254E+03   -0.28632E-02   -0.29873E-02  6040   0.501E-01    0.281E-01
DAV:   3    -0.116817093941E+03   -0.24347E-02   -0.15915E-02  6096   0.476E-01    0.612E-01
DAV:   4    -0.116814386491E+03    0.27075E-02   -0.11781E-02  6000   0.389E-01    0.231E-01
DAV:   5    -0.116814088426E+03    0.29806E-03   -0.10632E-03  3800   0.159E-01    0.118E-01
DAV:   6    -0.116814108156E+03   -0.19730E-04   -0.54002E-04  3880   0.120E-01
  24 F= -.11681411E+03 E0= -.11668112E+03  d E =-.354339E-02
       N       E                     dE             d eps       ncg     rms          rms(c)
DAV:   1    -0.116814073806E+03    0.14621E-04   -0.87404E-02  5968   0.646E-01    0.853E-02
DAV:   2    -0.116822990230E+03   -0.89164E-02   -0.27020E-02  7280   0.629E-01    0.101E+00
DAV:   3    -0.116814342190E+03    0.86480E-02   -0.26502E-02  6112   0.587E-01    0.207E-01
DAV:   4    -0.116814136226E+03    0.20596E-03   -0.12433E-03  4576   0.158E-01    0.667E-02
DAV:   5    -0.116814159852E+03   -0.23626E-04   -0.24744E-04  3728   0.792E-02
  25 F= -.11681416E+03 E0= -.11668093E+03  d E =-.359509E-02
       N       E                     dE             d eps       ncg     rms          rms(c)
DAV:   1    -0.116813621230E+03    0.51500E-03   -0.92007E-01  5768   0.211E+00    0.149E-01
DAV:   2    -0.116816050148E+03   -0.24289E-02   -0.15945E-02  6008   0.425E-01    0.389E-01
DAV:   3    -0.116816281430E+03   -0.23128E-03   -0.11913E-02  6016   0.459E-01    0.461E-01
DAV:   4    -0.116815176965E+03    0.11045E-02   -0.76779E-03  5416   0.322E-01    0.266E-01
DAV:   5    -0.116814659601E+03    0.51736E-03   -0.12660E-03  3800   0.151E-01    0.900E-02
DAV:   6    -0.116814695954E+03   -0.36353E-04   -0.36278E-04  3960   0.106E-01
  26 F= -.11681470E+03 E0= -.11668138E+03  d E =-.536101E-03
       N       E                     dE             d eps       ncg     rms          rms(c)
DAV:   1    -0.116814740382E+03   -0.80781E-04   -0.11367E-01  5984   0.743E-01    0.774E-02
DAV:   2    -0.116815270824E+03   -0.53044E-03   -0.30578E-03  5976   0.255E-01    0.218E-01
DAV:   3    -0.116814974837E+03    0.29599E-03   -0.17196E-03  5600   0.202E-01    0.138E-01
DAV:   4    -0.116814879191E+03    0.95646E-04   -0.87968E-04  3464   0.108E-01    0.765E-02
DAV:   5    -0.116814844696E+03    0.34495E-04   -0.20483E-04  3448   0.592E-02
  27 F= -.11681484E+03 E0= -.11668154E+03  d E =-.684844E-03
