 vasp.5.4.4.18Apr17-6-g9f103f2a35 (build Apr 28 2017 10:53:45) complex          
  
 executed on             LinuxIFC date 2019.01.02  16:18:50
 running on   32 total cores
 distrk:  each k-point on   32 cores,    1 groups
 distr:  one band on NCORES_PER_BAND=   8 cores,    4 groups


--------------------------------------------------------------------------------------------------------


 INCAR:
 POTCAR:    PAW_PBE C 08Apr2002                   
 POTCAR:    PAW_PBE O 08Apr2002                   
 POTCAR:    PAW_PBE Pd 04Jan2005                  
 POTCAR:    PAW_PBE C 08Apr2002                   
   VRHFIN =C: s2p2                                                              
   LEXCH  = PE                                                                  
   EATOM  =   147.1560 eV,   10.8157 Ry                                         
                                                                                
   TITEL  = PAW_PBE C 08Apr2002                                                 
   LULTRA =        F    use ultrasoft PP ?                                      
   IUNSCR =        1    unscreen: 0-lin 1-nonlin 2-no                           
   RPACOR =    1.200    partial core radius                                     
   POMASS =   12.011; ZVAL   =    4.000    mass and valenz                      
   RCORE  =    1.500    outmost cutoff radius                                   
   RWIGS  =    1.630; RWIGS  =    0.863    wigner-seitz radius (au A)           
   ENMAX  =  400.000; ENMIN  =  300.000 eV                                      
   ICORE  =        2    local potential                                         
   LCOR   =        T    correct aug charges                                     
   LPAW   =        T    paw PP                                                  
   EAUG   =  644.873                                                            
   DEXC   =    0.000                                                            
   RMAX   =    1.529    core radius for proj-oper                               
   RAUG   =    1.300    factor for augmentation sphere                          
   RDEP   =    1.501    radius for radial grids                                 
   RDEPT  =    1.300    core radius for aug-charge                              
                                                                                
   Atomic configuration                                                         
    4 entries                                                                   
     n  l   j            E        occ.                                          
     1  0  0.50      -273.3789   2.0000                                         
     2  0  0.50       -13.7508   2.0000                                         
     2  1  0.50        -5.2854   2.0000                                         
     3  2  1.50        -5.4423   0.0000                                         
   Description                                                                  
     l       E           TYP  RCUT    TYP  RCUT                                 
     0    -13.7508458     23  1.200                                             
     0     -8.2022199     23  1.200                                             
     1     -5.2854383     23  1.500                                             
     1     34.0145650     23  1.500                                             
     2     -5.4423304      7  1.500                                             
  local pseudopotential read in
  partial core-charges read in
  partial kinetic energy density read in
  atomic valenz-charges read in
  non local Contribution for L=           0  read in
    real space projection operators read in
  non local Contribution for L=           0  read in
    real space projection operators read in
  non local Contribution for L=           1  read in
    real space projection operators read in
  non local Contribution for L=           1  read in
    real space projection operators read in
    PAW grid and wavefunctions read in
 
   number of l-projection  operators is LMAX  =           4
   number of lm-projection operators is LMMAX =           8
 
 POTCAR:    PAW_PBE O 08Apr2002                   
   VRHFIN =O: s2p4                                                              
   LEXCH  = PE                                                                  
   EATOM  =   432.3788 eV,   31.7789 Ry                                         
                                                                                
   TITEL  = PAW_PBE O 08Apr2002                                                 
   LULTRA =        F    use ultrasoft PP ?                                      
   IUNSCR =        1    unscreen: 0-lin 1-nonlin 2-no                           
   RPACOR =    1.200    partial core radius                                     
   POMASS =   16.000; ZVAL   =    6.000    mass and valenz                      
   RCORE  =    1.520    outmost cutoff radius                                   
   RWIGS  =    1.550; RWIGS  =    0.820    wigner-seitz radius (au A)           
   ENMAX  =  400.000; ENMIN  =  300.000 eV                                      
   ICORE  =        2    local potential                                         
   LCOR   =        T    correct aug charges                                     
   LPAW   =        T    paw PP                                                  
   EAUG   =  605.392                                                            
   DEXC   =    0.000                                                            
   RMAX   =    1.553    core radius for proj-oper                               
   RAUG   =    1.300    factor for augmentation sphere                          
   RDEP   =    1.550    radius for radial grids                                 
   RDEPT  =    1.329    core radius for aug-charge                              
                                                                                
   Atomic configuration                                                         
    4 entries                                                                   
     n  l   j            E        occ.                                          
     1  0  0.50      -514.6923   2.0000                                         
     2  0  0.50       -23.9615   2.0000                                         
     2  1  0.50        -9.0305   4.0000                                         
     3  2  1.50        -9.5241   0.0000                                         
   Description                                                                  
     l       E           TYP  RCUT    TYP  RCUT                                 
     0    -23.9615318     23  1.200                                             
     0     -9.5240782     23  1.200                                             
     1     -9.0304911     23  1.520                                             
     1      8.1634956     23  1.520                                             
     2     -9.5240782      7  1.500                                             
  local pseudopotential read in
  partial core-charges read in
  partial kinetic energy density read in
  kinetic energy density of atom read in
  atomic valenz-charges read in
  non local Contribution for L=           0  read in
    real space projection operators read in
  non local Contribution for L=           0  read in
    real space projection operators read in
  non local Contribution for L=           1  read in
    real space projection operators read in
  non local Contribution for L=           1  read in
    real space projection operators read in
    PAW grid and wavefunctions read in
 
   number of l-projection  operators is LMAX  =           4
   number of lm-projection operators is LMMAX =           8
 
 POTCAR:    PAW_PBE Pd 04Jan2005                  
   VRHFIN =Pd : s1 d9                                                           
   LEXCH  = PE                                                                  
   EATOM  =   809.7530 eV,   59.5152 Ry                                         
                                                                                
   TITEL  = PAW_PBE Pd 04Jan2005                                                
   LULTRA =        F    use ultrasoft PP ?                                      
   IUNSCR =        1    unscreen: 0-lin 1-nonlin 2-no                           
   RPACOR =    2.000    partial core radius                                     
   POMASS =  106.420; ZVAL   =   10.000    mass and valenz                      
   RCORE  =    2.600    outmost cutoff radius                                   
   RWIGS  =    2.710; RWIGS  =    1.434    wigner-seitz radius (au A)           
   ENMAX  =  250.925; ENMIN  =  188.194 eV                                      
   ICORE  =        3    local potential                                         
   LCOR   =        T    correct aug charges                                     
   LPAW   =        T    paw PP                                                  
   EAUG   =  416.230                                                            
   DEXC   =    0.000                                                            
   RMAX   =    2.653    core radius for proj-oper                               
   RAUG   =    1.300    factor for augmentation sphere                          
   RDEP   =    2.734    radius for radial grids                                 
   RDEPT  =    2.103    core radius for aug-charge                              
                                                                                
   Atomic configuration                                                         
   12 entries                                                                   
     n  l   j            E        occ.                                          
     1  0  0.50    -24164.6631   2.0000                                         
     2  0  0.50     -3530.9218   2.0000                                         
     2  1  1.50     -3165.6822   6.0000                                         
     3  0  0.50      -639.4577   2.0000                                         
     3  1  1.50      -519.4532   6.0000                                         
     3  2  2.50      -328.9757  10.0000                                         
     4  0  0.50       -88.7014   2.0000                                         
     4  1  1.50       -54.4540   6.0000                                         
     4  2  2.50        -6.6878   9.0000                                         
     5  0  0.50        -4.3543   1.0000                                         
     5  1  0.50        -1.3606   0.0000                                         
     4  3  2.50        -1.3606   0.0000                                         
   Description                                                                  
     l       E           TYP  RCUT    TYP  RCUT                                 
     2     -6.6878251     23  2.400                                             
     2     -8.0484077     23  2.400                                             
     0     -4.3542939     23  2.400                                             
     0      4.3406793     23  2.400                                             
     1     -4.0817478     23  2.600                                             
     1     15.8380318     23  2.600                                             
     3     -4.0817478     23  2.400                                             
  local pseudopotential read in
  partial core-charges read in
  partial kinetic energy density read in
  atomic valenz-charges read in
  non local Contribution for L=           2  read in
    real space projection operators read in
  non local Contribution for L=           2  read in
    real space projection operators read in
  non local Contribution for L=           0  read in
    real space projection operators read in
  non local Contribution for L=           0  read in
    real space projection operators read in
  non local Contribution for L=           1  read in
    real space projection operators read in
  non local Contribution for L=           1  read in
    real space projection operators read in
    PAW grid and wavefunctions read in
 
   number of l-projection  operators is LMAX  =           6
   number of lm-projection operators is LMMAX =          18
 
 Optimization of the real space projectors (new method)

 maximal supplied QI-value         = 25.13
 optimisation between [QCUT,QGAM] = [  9.55, 19.10] = [ 25.54,102.17] Ry 
 Optimized for a Real-space Cutoff    1.39 Angstroem

   l    n(q)    QCUT    max X(q) W(low)/X(q) W(high)/X(q)  e(spline) 
   0      8     9.551   115.676    0.39E-03    0.54E-03    0.29E-06
   0      8     9.551    87.132    0.39E-03    0.54E-03    0.28E-06
   1      7     9.551     4.429    0.35E-03    0.51E-04    0.29E-06
   1      7     9.551     2.733    0.22E-03    0.42E-04    0.31E-06
 Optimization of the real space projectors (new method)

 maximal supplied QI-value         = 24.76
 optimisation between [QCUT,QGAM] = [  9.41, 19.06] = [ 24.78,101.75] Ry 
 Optimized for a Real-space Cutoff    1.48 Angstroem

   l    n(q)    QCUT    max X(q) W(low)/X(q) W(high)/X(q)  e(spline) 
   0      8     9.407    20.381    0.17E-03    0.13E-03    0.41E-06
   0      8     9.407    15.268    0.19E-03    0.15E-03    0.42E-06
   1      8     9.407     5.946    0.36E-03    0.29E-03    0.38E-06
   1      8     9.407     5.382    0.31E-03    0.24E-03    0.34E-06
 Optimization of the real space projectors (new method)

 maximal supplied QI-value         = 14.36
 optimisation between [QCUT,QGAM] = [  9.48, 19.10] = [ 25.16,102.17] Ry 
 Optimized for a Real-space Cutoff    1.52 Angstroem

   l    n(q)    QCUT    max X(q) W(low)/X(q) W(high)/X(q)  e(spline) 
   2      8     9.479    59.108    0.48E-04    0.31E-03    0.96E-07
   2      8     9.479    58.101    0.46E-04    0.32E-03    0.99E-07
   0      9     9.479   102.235    0.56E-04    0.11E-03    0.61E-07
   0      9     9.479    58.388    0.50E-04    0.10E-03    0.58E-07
   1      8     9.479    22.191    0.26E-03    0.25E-04    0.13E-06
   1      8     9.479    15.590    0.22E-03    0.23E-04    0.11E-06
  PAW_PBE C 08Apr2002                   :
 energy of atom  1       EATOM= -147.1560
 kinetic energy error for atom=    0.0854 (will be added to EATOM!!)
  PAW_PBE O 08Apr2002                   :
 energy of atom  2       EATOM= -432.3788
 kinetic energy error for atom=    0.3782 (will be added to EATOM!!)
  PAW_PBE Pd 04Jan2005                  :
 energy of atom  3       EATOM= -809.7530
 kinetic energy error for atom=    0.0269 (will be added to EATOM!!)
 
 
 POSCAR:  C  O Pd                                
  positions in cartesian coordinates
  No initial velocities read in
 exchange correlation table for  LEXCH =        8
   RHO(1)=    0.500       N(1)  =     2000
   RHO(2)=  100.500       N(2)  =     4000
 


--------------------------------------------------------------------------------------------------------


 ion  position               nearest neighbor table
   1  0.167  0.167  0.720-   2 1.15   6 2.45   4 2.45   5 2.45
   2  0.167  0.167  0.759-   1 1.15
   3  0.500  0.500  0.656-   9 2.79   7 2.79  10 2.79   5 2.79   4 2.79   5 2.79   6 2.79   4 2.79
                             6 2.79
   4  0.000  0.500  0.656-   1 2.45  10 2.79   9 2.79   8 2.79   6 2.79   3 2.79   5 2.79   6 2.79
                             3 2.79   5 2.79
   5  0.500  0.000  0.656-   1 2.45   7 2.79   8 2.79   9 2.79   6 2.79   3 2.79   3 2.79   4 2.79
                             4 2.79   6 2.79
   6  0.000  0.000  0.656-   1 2.45   8 2.79   7 2.79  10 2.79   5 2.79   4 2.79   3 2.79   4 2.79
                             3 2.79   5 2.79
   7  0.333  0.833  0.578-   5 2.79   3 2.79   6 2.79   8 2.79   9 2.79   9 2.79  10 2.79   8 2.79
                            10 2.79  11 2.79  13 2.79  22 2.79
   8  0.833  0.833  0.578-   6 2.79   5 2.79   4 2.79   7 2.79  10 2.79   9 2.79  10 2.79   7 2.79
                             9 2.79  21 2.79  22 2.79  11 2.79
   9  0.333  0.333  0.578-   3 2.79   4 2.79   5 2.79   7 2.79  10 2.79   7 2.79   8 2.79   8 2.79
                            10 2.79  21 2.79  22 2.79  13 2.79
  10  0.833  0.333  0.578-   4 2.79   3 2.79   6 2.79   8 2.79   9 2.79   7 2.79   8 2.79   7 2.79
                             9 2.79  11 2.79  13 2.79  21 2.79
  11  0.667  0.667  0.500-  21 2.79  22 2.79  13 2.79  21 2.79  13 2.79  22 2.79   7 2.79  10 2.79
                            14 2.79  15 2.79  16 2.79   8 2.79
  12  0.833  0.333  0.344-  15 2.79  14 2.79  17 2.79  19 2.79  20 2.79  18 2.79  19 2.79  18 2.79
                            20 2.79
  13  0.167  0.167  0.500-  21 2.79  22 2.79  11 2.79  22 2.79  11 2.79  21 2.79   7 2.79  10 2.79
                            17 2.79  16 2.79  15 2.79   9 2.79
  14  0.500  0.500  0.422-  20 2.79  18 2.79  12 2.79  15 2.79  16 2.79  16 2.79  17 2.79  15 2.79
                            17 2.79  11 2.79  21 2.79  22 2.79
  15  0.000  0.500  0.422-  12 2.79  19 2.79  20 2.79  14 2.79  17 2.79  16 2.79  17 2.79  14 2.79
                            16 2.79  22 2.79  13 2.79  11 2.79
  16  0.500  0.000  0.422-  18 2.79  19 2.79  20 2.79  17 2.79  14 2.79  14 2.79  15 2.79  15 2.79
                            17 2.79  21 2.79  11 2.79  13 2.79
  17  0.000  0.000  0.422-  19 2.79  18 2.79  12 2.79  15 2.79  16 2.79  14 2.79  15 2.79  14 2.79
                            16 2.79  13 2.79  21 2.79  22 2.79
  18  0.333  0.833  0.344-  16 2.79  14 2.79  17 2.79  19 2.79  20 2.79  12 2.79  20 2.79  12 2.79
                            19 2.79
  19  0.833  0.833  0.344-  17 2.79  16 2.79  15 2.79  12 2.79  18 2.79  12 2.79  20 2.79  18 2.79
                            20 2.79
  20  0.333  0.333  0.344-  14 2.79  15 2.79  16 2.79  12 2.79  18 2.79  18 2.79  19 2.79  12 2.79
                            19 2.79
  21  0.667  0.167  0.500-  11 2.79  13 2.79  11 2.79  22 2.79  13 2.79  22 2.79   9 2.79  16 2.79
                             8 2.79  14 2.79  17 2.79  10 2.79
  22  0.167  0.667  0.500-  11 2.79  13 2.79  13 2.79  21 2.79  11 2.79  21 2.79   9 2.79  15 2.79
                             8 2.79  14 2.79  17 2.79   7 2.79
 
  LATTYP: Found a hexagonal cell.
 ALAT       =     5.5720014357
 C/A-ratio  =     5.2223676856
  
  Lattice vectors:
  
 A1 = (   2.7860007179,  -4.8254947933,   0.0000000000)
 A2 = (  -5.5720014357,   0.0000000000,   0.0000000000)
 A3 = (   0.0000000000,   0.0000000000, -29.0990402424)


Analysis of symmetry for initial positions (statically):
=====================================================================
 Subroutine PRICEL returns:
 Original cell was already a primitive cell.
 

 Routine SETGRP: Setting up the symmetry group for a 
 hexagonal supercell.


 Subroutine GETGRP returns: Found  6 space group operations
 (whereof  2 operations were pure point group operations)
 out of a pool of 24 trial point group operations.


The static configuration has the point symmetry C_1h.
 The point group associated with its full space group is C_3v.


Analysis of symmetry for dynamics (positions and initial velocities):
=====================================================================
 Subroutine PRICEL returns:
 Original cell was already a primitive cell.
 

 Routine SETGRP: Setting up the symmetry group for a 
 hexagonal supercell.


 Subroutine GETGRP returns: Found  6 space group operations
 (whereof  2 operations were pure point group operations)
 out of a pool of 24 trial point group operations.


The dynamic configuration has the point symmetry C_1h.
 The point group associated with its full space group is C_3v.


Analysis of constrained symmetry for selective dynamics:
=====================================================================
 Subroutine PRICEL returns:
 Original cell was already a primitive cell.
 

 Routine SETGRP: Setting up the symmetry group for a 
 hexagonal supercell.


 Subroutine GETGRP returns: Found  6 space group operations
 (whereof  2 operations were pure point group operations)
 out of a pool of 24 trial point group operations.


The constrained configuration has the point symmetry C_1h.
 The point group associated with its full space group is C_3v.


 Subroutine INISYM returns: Found  6 space group operations
 (whereof  2 operations are pure point group operations),
 and found     1 'primitive' translations

 
 
 KPOINTS: Pd-CO-ads-fcc                           

Automatic generation of k-mesh.
Space group operators:
 irot       det(A)        alpha          n_x          n_y          n_z        tau_x        tau_y        tau_z
    1     1.000000     0.000000     1.000000     0.000000     0.000000     0.000000     0.000000     0.000000
    2    -1.000000   180.000000     0.500000    -0.866025     0.000000     0.000000     0.000000     0.000000
    3     1.000000   120.000000     0.000000     0.000000     1.000000     0.000000    -0.500000     0.000000
    4     1.000000   120.000000     0.000000     0.000000    -1.000000    -0.500000    -0.000000     0.000000
    5    -1.000000   180.000000     1.000000     0.000000     0.000000    -0.500000     0.000000     0.000000
    6    -1.000000   180.000000    -0.500000    -0.866025     0.000000     0.000000    -0.500000     0.000000
 
 Subroutine IBZKPT returns following result:
 ===========================================
 
 Found     20 irreducible k-points:
 
 Following reciprocal coordinates:
            Coordinates               Weight
  0.062500  0.062500  0.000000     48.000000
  0.187500  0.062500  0.000000     96.000000
  0.312500  0.062500  0.000000     96.000000
  0.437500  0.062500  0.000000     96.000000
 -0.437500  0.062500  0.000000     96.000000
 -0.312500  0.062500  0.000000     96.000000
 -0.187500  0.062500  0.000000     96.000000
 -0.062500  0.062500  0.000000     48.000000
  0.187500  0.187500  0.000000     48.000000
  0.312500  0.187500  0.000000     96.000000
  0.437500  0.187500  0.000000     96.000000
 -0.437500  0.187500  0.000000     96.000000
 -0.312500  0.187500  0.000000     96.000000
 -0.187500  0.187500  0.000000     48.000000
  0.312500  0.312500  0.000000     48.000000
  0.437500  0.312500  0.000000     96.000000
 -0.437500  0.312500  0.000000     96.000000
 -0.312500  0.312500  0.000000     48.000000
  0.437500  0.437500  0.000000     48.000000
 -0.437500  0.437500  0.000000     48.000000
 
 Following cartesian coordinates:
            Coordinates               Weight
  0.011217  0.006476  0.000000     48.000000
  0.033650 -0.006476  0.000000     96.000000
  0.056084 -0.019428  0.000000     96.000000
  0.078518 -0.032380  0.000000     96.000000
 -0.078518  0.058284  0.000000     96.000000
 -0.056084  0.045332  0.000000     96.000000
 -0.033650  0.032380  0.000000     96.000000
 -0.011217  0.019428  0.000000     48.000000
  0.033650  0.019428  0.000000     48.000000
  0.056084  0.006476  0.000000     96.000000
  0.078518 -0.006476  0.000000     96.000000
 -0.078518  0.084188  0.000000     96.000000
 -0.056084  0.071236  0.000000     96.000000
 -0.033650  0.058284  0.000000     48.000000
  0.056084  0.032380  0.000000     48.000000
  0.078518  0.019428  0.000000     96.000000
 -0.078518  0.110092  0.000000     96.000000
 -0.056084  0.097140  0.000000     48.000000
  0.078518  0.045332  0.000000     48.000000
 -0.078518  0.135996  0.000000     48.000000
 


--------------------------------------------------------------------------------------------------------




 Dimension of arrays:
   k-points           NKPTS =     20   k-points in BZ     NKDIM =     20   number of bands    NBANDS=    144
   number of dos      NEDOS =    301   number of ions     NIONS =     22
   non local maximal  LDIM  =      6   non local SUM 2l+1 LMDIM =     18
   total plane-waves  NPLWV = 109760
   max r-space proj   IRMAX =   2114   max aug-charges    IRDMAX=   7004
   dimension x,y,z NGX =    28 NGY =   28 NGZ =  140
   dimension x,y,z NGXF=    56 NGYF=   56 NGZF=  280
   support grid    NGXF=    56 NGYF=   56 NGZF=  280
   ions per type =               1   1  20
   NGX,Y,Z   is equivalent  to a cutoff of   8.35,  8.35,  8.00 a.u.
   NGXF,Y,Z  is equivalent  to a cutoff of  16.71, 16.71, 16.00 a.u.

 SYSTEM =  Pd-CO-ads-fcc                           
 POSCAR =   C  O Pd                                

 Startparameter for this run:
   NWRITE =      2    write-flag & timer
   PREC   = normal    normal or accurate (medium, high low for compatibility)
   ISTART =      0    job   : 0-new  1-cont  2-samecut
   ICHARG =      2    charge: 1-file 2-atom 10-const
   ISPIN  =      1    spin polarized calculation?
   LNONCOLLINEAR =      F non collinear calculations
   LSORBIT =      F    spin-orbit coupling
   INIWAV =      1    electr: 0-lowe 1-rand  2-diag
   LASPH  =      F    aspherical Exc in radial PAW
   METAGGA=      F    non-selfconsistent MetaGGA calc.

 Electronic Relaxation 1
   ENCUT  =  350.0 eV  25.72 Ry    5.07 a.u.   8.50  8.50 44.39*2*pi/ulx,y,z
   ENINI  =  350.0     initial cutoff
   ENAUG  =  644.9 eV  augmentation charge cutoff
   NELM   =    300;   NELMIN=  5; NELMDL= -5     # of ELM steps 
   EDIFF  = 0.1E-03   stopping-criterion for ELM
   LREAL  =      T    real-space projection
   NLSPLINE    = F    spline interpolate recip. space projectors
   LCOMPAT=      F    compatible to vasp.4.4
   GGA_COMPAT  = T    GGA compatible to vasp.4.4-vasp.4.6
   LMAXPAW     = -100 max onsite density
   LMAXMIX     =    2 max onsite mixed and CHGCAR
   VOSKOWN=      1    Vosko Wilk Nusair interpolation
   ROPT   =   -0.00050  -0.00050  -0.00050
 Ionic relaxation
   EDIFFG = 0.1E-02   stopping-criterion for IOM
   NSW    =    200    number of steps for IOM
   NBLOCK =      1;   KBLOCK =    200    inner block; outer block 
   IBRION =      2    ionic relax: 0-MD 1-quasi-New 2-CG
   NFREE  =      1    steps in history (QN), initial steepest desc. (CG)
   ISIF   =      2    stress and relaxation
   IWAVPR =     11    prediction:  0-non 1-charg 2-wave 3-comb
   ISYM   =      2    0-nonsym 1-usesym 2-fastsym
   LCORR  =      T    Harris-Foulkes like correction to forces

   POTIM  = 0.5000    time-step for ionic-motion
   TEIN   =    0.0    initial temperature
   TEBEG  =    0.0;   TEEND  =   0.0 temperature during run
   SMASS  =  -3.00    Nose mass-parameter (am)
   estimated Nose-frequenzy (Omega)   =  0.10E-29 period in steps =****** mass=  -0.710E-27a.u.
   SCALEE = 1.0000    scale energy and forces
   NPACO  =    256;   APACO  = 16.0  distance and # of slots for P.C.
   PSTRESS=    0.0 pullay stress

  Mass of Ions in am
   POMASS =  12.01 16.00106.42
  Ionic Valenz
   ZVAL   =   4.00  6.00 10.00
  Atomic Wigner-Seitz radii
   RWIGS  =  -1.00 -1.00 -1.00
  virtual crystal weights 
   VCA    =   1.00  1.00  1.00
   NELECT =     210.0000    total number of electrons
   NUPDOWN=      -1.0000    fix difference up-down

 DOS related values:
   EMIN   =  10.00;   EMAX   =-10.00  energy-range for DOS
   EFERMI =   0.00
   ISMEAR =     1;   SIGMA  =   0.40  broadening in eV -4-tet -1-fermi 0-gaus

 Electronic relaxation 2 (details)
   IALGO  =     38    algorithm
   LDIAG  =      T    sub-space diagonalisation (order eigenvalues)
   LSUBROT=      F    optimize rotation matrix (better conditioning)
   TURBO    =      0    0=normal 1=particle mesh
   IRESTART =      0    0=no restart 2=restart with 2 vectors
   NREBOOT  =      0    no. of reboots
   NMIN     =      0    reboot dimension
   EREF     =   0.00    reference energy to select bands
   IMIX   =      4    mixing-type and parameters
     AMIX     =   0.40;   BMIX     =  1.00
     AMIX_MAG =   1.60;   BMIX_MAG =  1.00
     AMIN     =   0.10
     WC   =   100.;   INIMIX=   1;  MIXPRE=   1;  MAXMIX= -45

 Intra band minimization:
   WEIMIN = 0.0010     energy-eigenvalue tresh-hold
   EBREAK =  0.17E-06  absolut break condition
   DEPER  =   0.30     relativ break condition  

   TIME   =   0.40     timestep for ELM

  volume/ion in A,a.u.               =      35.56       240.00
  Fermi-wavevector in a.u.,A,eV,Ry     =   1.056016  1.995582 15.172819  1.115171
  Thomas-Fermi vector in A             =   2.191236
 
 Write flags
   LWAVE        =      F    write WAVECAR
   LDOWNSAMPLE  =      F    k-point downsampling of WAVECAR
   LCHARG       =      F    write CHGCAR
   LVTOT        =      F    write LOCPOT, total local potential
   LVHAR        =      F    write LOCPOT, Hartree potential only
   LELF         =      F    write electronic localiz. function (ELF)
   LORBIT       =      0    0 simple, 1 ext, 2 COOP (PROOUT), +10 PAW based schemes


 Dipole corrections
   LMONO  =      F    monopole corrections only (constant potential shift)
   LDIPOL =      F    correct potential (dipole corrections)
   IDIPOL =      0    1-x, 2-y, 3-z, 4-all directions 
   EPSILON=  1.0000000 bulk dielectric constant

 Exchange correlation treatment:
   GGA     =    --    GGA type
   LEXCH   =     8    internal setting for exchange type
   VOSKOWN=      1    Vosko Wilk Nusair interpolation
   LHFCALC =     F    Hartree Fock is set to
   LHFONE  =     F    Hartree Fock one center treatment
   AEXX    =    0.0000 exact exchange contribution

 Linear response parameters
   LEPSILON=     F    determine dielectric tensor
   LRPA    =     F    only Hartree local field effects (RPA)
   LNABLA  =     F    use nabla operator in PAW spheres
   LVEL    =     F    velocity operator in full k-point grid
   LINTERFAST=   F  fast interpolation
   KINTER  =     0    interpolate to denser k-point grid
   CSHIFT  =0.1000    complex shift for real part using Kramers Kronig
   OMEGAMAX=  -1.0    maximum frequency
   DEG_THRESHOLD= 0.2000000E-02 threshold for treating states as degnerate
   RTIME   =   -0.100 relaxation time in fs
  (WPLASMAI=    0.000 imaginary part of plasma frequency in eV, 0.658/RTIME)
   DFIELD  = 0.0000000 0.0000000 0.0000000 field for delta impulse in time
 
 Orbital magnetization related:
   ORBITALMAG=     F  switch on orbital magnetization
   LCHIMAG   =     F  perturbation theory with respect to B field
   DQ        =  0.001000  dq finite difference perturbation B field
   LLRAUG    =     F  two centre corrections for induced B field



--------------------------------------------------------------------------------------------------------


 conjugate gradient relaxation of ions
   using selective dynamics as specified on POSCAR
   WARNING: If single coordinates had been selected the selection of coordinates
            is made according to the corresponding   d i r e c t   coordinates!
            Don't support selection of single cartesian coordinates -- sorry ...
  !
 charge density and potential will be updated during run
 non-spin polarized calculation
 Variant of blocked Davidson
 Davidson routine will perform the subspace rotation
 perform sub-space diagonalisation
    after iterative eigenvector-optimisation
 modified Broyden-mixing scheme, WC =      100.0
 initial mixing is a Kerker type mixing with AMIX =  0.4000 and BMIX =      1.0000
 Hartree-type preconditioning will be used
 using additional bands           39
 real space projection scheme for non local part
 use partial core corrections
 calculate Harris-corrections to forces 
   (improved forces if not selfconsistent)
 use gradient corrections 
 use of overlap-Matrix (Vanderbilt PP)
 Methfessel and Paxton  Order N= 1 SIGMA  =   0.40


--------------------------------------------------------------------------------------------------------


  energy-cutoff  :      350.00
  volume of cell :      782.41
      direct lattice vectors                 reciprocal lattice vectors
     5.572001436  0.000000000  0.000000000     0.179468726 -0.103616317  0.000000000
     2.786000718  4.825494793  0.000000000     0.000000000  0.207232635  0.000000000
     0.000000000  0.000000000 29.099040242     0.000000000  0.000000000  0.034365395

  length of vectors
     5.572001436  5.572001436 29.099040242     0.207232635  0.207232635  0.034365395


 
 k-points in units of 2pi/SCALE and weight: Pd-CO-ads-fcc                           
   0.01121680  0.00647602  0.00000000       0.031
   0.03365039 -0.00647602  0.00000000       0.062
   0.05608398 -0.01942806  0.00000000       0.062
   0.07851757 -0.03238010  0.00000000       0.062
  -0.07851757  0.05828418  0.00000000       0.062
  -0.05608398  0.04533214  0.00000000       0.062
  -0.03365039  0.03238010  0.00000000       0.062
  -0.01121680  0.01942806  0.00000000       0.031
   0.03365039  0.01942806  0.00000000       0.031
   0.05608398  0.00647602  0.00000000       0.062
   0.07851757 -0.00647602  0.00000000       0.062
  -0.07851757  0.08418826  0.00000000       0.062
  -0.05608398  0.07123622  0.00000000       0.062
  -0.03365039  0.05828418  0.00000000       0.031
   0.05608398  0.03238010  0.00000000       0.031
   0.07851757  0.01942806  0.00000000       0.062
  -0.07851757  0.11009234  0.00000000       0.062
  -0.05608398  0.09714030  0.00000000       0.031
   0.07851757  0.04533214  0.00000000       0.031
  -0.07851757  0.13599642  0.00000000       0.031
 
 k-points in reciprocal lattice and weights: Pd-CO-ads-fcc                           
   0.06250000  0.06250000  0.00000000       0.031
   0.18750000  0.06250000  0.00000000       0.062
   0.31250000  0.06250000  0.00000000       0.062
   0.43750000  0.06250000  0.00000000       0.062
  -0.43750000  0.06250000  0.00000000       0.062
  -0.31250000  0.06250000  0.00000000       0.062
  -0.18750000  0.06250000  0.00000000       0.062
  -0.06250000  0.06250000  0.00000000       0.031
   0.18750000  0.18750000  0.00000000       0.031
   0.31250000  0.18750000  0.00000000       0.062
   0.43750000  0.18750000  0.00000000       0.062
  -0.43750000  0.18750000  0.00000000       0.062
  -0.31250000  0.18750000  0.00000000       0.062
  -0.18750000  0.18750000  0.00000000       0.031
   0.31250000  0.31250000  0.00000000       0.031
   0.43750000  0.31250000  0.00000000       0.062
  -0.43750000  0.31250000  0.00000000       0.062
  -0.31250000  0.31250000  0.00000000       0.031
   0.43750000  0.43750000  0.00000000       0.031
  -0.43750000  0.43750000  0.00000000       0.031
 
 position of ions in fractional coordinates (direct lattice) 
   0.16666667  0.16666667  0.71991035
   0.16666667  0.16666667  0.75944224
   0.50000000  0.50000000  0.65634605
   0.00000000  0.50000000  0.65634605
   0.50000000  0.00000000  0.65634605
   0.00000000  0.00000000  0.65634605
   0.33333333  0.83333333  0.57817303
   0.83333333  0.83333333  0.57817303
   0.33333333  0.33333333  0.57817303
   0.83333333  0.33333333  0.57817303
   0.66666667  0.66666667  0.50000000
   0.83333333  0.33333333  0.34365395
   0.16666667  0.16666667  0.50000000
   0.50000000  0.50000000  0.42182697
   0.00000000  0.50000000  0.42182697
   0.50000000  0.00000000  0.42182697
   0.00000000  0.00000000  0.42182697
   0.33333333  0.83333333  0.34365395
   0.83333333  0.83333333  0.34365395
   0.33333333  0.33333333  0.34365395
   0.66666667  0.16666667  0.50000000
   0.16666667  0.66666667  0.50000000
 
 position of ions in cartesian coordinates  (Angst):
   1.39300036  0.80424913 20.94870024
   1.39300036  0.80424913 22.09904024
   4.17900108  2.41274740 19.09904024
   1.39300036  2.41274740 19.09904024
   2.78600072  0.00000000 19.09904024
   0.00000000  0.00000000 19.09904024
   4.17900108  4.02124566 16.82428018
   6.96500179  4.02124566 16.82428018
   2.78600072  1.60849826 16.82428018
   5.57200144  1.60849826 16.82428018
   5.57200144  3.21699653 14.54952012
   5.57200144  1.60849826 10.00000000
   1.39300036  0.80424913 14.54952012
   4.17900108  2.41274740 12.27476006
   1.39300036  2.41274740 12.27476006
   2.78600072  0.00000000 12.27476006
   0.00000000  0.00000000 12.27476006
   4.17900108  4.02124566 10.00000000
   6.96500179  4.02124566 10.00000000
   2.78600072  1.60849826 10.00000000
   4.17900108  0.80424913 14.54952012
   2.78600072  3.21699653 14.54952012
 


--------------------------------------------------------------------------------------------------------


 k-point  1 :   0.0625 0.0625 0.0000  plane waves:   11699
 k-point  2 :   0.1875 0.0625 0.0000  plane waves:   11678
 k-point  3 :   0.3125 0.0625 0.0000  plane waves:   11644
 k-point  4 :   0.4375 0.0625 0.0000  plane waves:   11613
 k-point  5 :  -0.4375 0.0625 0.0000  plane waves:   11584
 k-point  6 :  -0.3125 0.0625 0.0000  plane waves:   11633
 k-point  7 :  -0.1875 0.0625 0.0000  plane waves:   11664
 k-point  8 :  -0.0625 0.0625 0.0000  plane waves:   11701
 k-point  9 :   0.1875 0.1875 0.0000  plane waves:   11669
 k-point 10 :   0.3125 0.1875 0.0000  plane waves:   11655
 k-point 11 :   0.4375 0.1875 0.0000  plane waves:   11637
 k-point 12 :  -0.4375 0.1875 0.0000  plane waves:   11602
 k-point 13 :  -0.3125 0.1875 0.0000  plane waves:   11602
 k-point 14 :  -0.1875 0.1875 0.0000  plane waves:   11673
 k-point 15 :   0.3125 0.3125 0.0000  plane waves:   11649
 k-point 16 :   0.4375 0.3125 0.0000  plane waves:   11619
 k-point 17 :  -0.4375 0.3125 0.0000  plane waves:   11603
 k-point 18 :  -0.3125 0.3125 0.0000  plane waves:   11606
 k-point 19 :   0.4375 0.4375 0.0000  plane waves:   11610
 k-point 20 :  -0.4375 0.4375 0.0000  plane waves:   11600

 maximum and minimum number of plane-waves per node :      1479     1426

 maximum number of plane-waves:     11701
 maximum index in each direction: 
   IXMAX=    8   IYMAX=    8   IZMAX=   44
   IXMIN=   -8   IYMIN=   -8   IZMIN=  -44


 real space projection operators:
  total allocation   :       5828.25 KBytes
  max/ min on nodes  :        843.91        613.69


 parallel 3D FFT for wavefunctions:
    minimum data exchange during FFTs selected (reduces bandwidth)
 parallel 3D FFT for charge:
    minimum data exchange during FFTs selected (reduces bandwidth)


 total amount of memory used by VASP MPI-rank0    53704. kBytes
=======================================================================

   base      :      30000. kBytes
   nonlr-proj:       1817. kBytes
   fftplans  :       1501. kBytes
   grid      :       2646. kBytes
   one-center:         46. kBytes
   wavefun   :      17694. kBytes
 
     INWAV:  cpu time    0.0000: real time    0.0000
 Broyden mixing: mesh for mixing (old mesh)
   NGX = 17   NGY = 17   NGZ = 89
  (NGX  = 56   NGY  = 56   NGZ  =280)
  gives a total of  25721 points

 initial charge density was supplied:
 charge density of overlapping atoms calculated
 number of electron     210.0000000 magnetization 
 keeping initial charge density in first step


--------------------------------------------------------------------------------------------------------


 Maximum index for non-local projection operator          345
 Maximum index for augmentation-charges          383 (set IRDMAX)


--------------------------------------------------------------------------------------------------------


 First call to EWALD:  gamma=   0.192
 Maximum number of real-space cells 5x 5x 1
 Maximum number of reciprocal cells 2x 2x 8

    FEWALD:  cpu time    0.0024: real time    0.0024


--------------------------------------- Iteration      1(   1)  ---------------------------------------


    POTLOK:  cpu time    0.0269: real time    0.0346
    SETDIJ:  cpu time    0.0037: real time    0.0037
     EDDAV:  cpu time    6.0250: real time    6.0285
       DOS:  cpu time    0.0043: real time    0.0043
    --------------------------------------------
      LOOP:  cpu time    6.0599: real time    6.0711

 eigenvalue-minimisations  :  5888
 total energy-change (2. order) : 0.1114713E+04  (-0.7903892E+04)
 number of electron     210.0000000 magnetization 
 augmentation part      210.0000000 magnetization 

 Free energy of the ion-electron system (eV)
  ---------------------------------------------------
  alpha Z        PSCENC =       361.59275062
  Ewald energy   TEWEN  =    107049.56073700
  -Hartree energ DENC   =   -124475.54567609
  -exchange      EXHF   =         0.00000000
  -V(xc)+E(xc)   XCENC  =      -548.60550801
  PAW double counting   =     16589.83781407   -15347.76008947
  entropy T*S    EENTRO =         0.00372998
  eigenvalues    EBANDS =       712.03511669
  atomic energy  EATOM  =     16773.59380047
  Solvation  Ediel_sol  =         0.00000000
  ---------------------------------------------------
  free energy    TOTEN  =      1114.71267526 eV

  energy without entropy =     1114.70894528  energy(sigma->0) =     1114.71143193


--------------------------------------------------------------------------------------------------------




--------------------------------------- Iteration      1(   2)  ---------------------------------------


     EDDAV:  cpu time    6.5408: real time    6.5435
       DOS:  cpu time    0.0045: real time    0.0045
    --------------------------------------------
      LOOP:  cpu time    6.5453: real time    6.5480

 eigenvalue-minimisations  :  6512
 total energy-change (2. order) :-0.1178215E+04  (-0.1105556E+04)
 number of electron     210.0000000 magnetization 
 augmentation part      210.0000000 magnetization 

 Free energy of the ion-electron system (eV)
  ---------------------------------------------------
  alpha Z        PSCENC =       361.59275062
  Ewald energy   TEWEN  =    107049.56073700
  -Hartree energ DENC   =   -124475.54567609
  -exchange      EXHF   =         0.00000000
  -V(xc)+E(xc)   XCENC  =      -548.60550801
  PAW double counting   =     16589.83781407   -15347.76008947
  entropy T*S    EENTRO =        -0.15665732
  eigenvalues    EBANDS =      -466.01940159
  atomic energy  EATOM  =     16773.59380047
  Solvation  Ediel_sol  =         0.00000000
  ---------------------------------------------------
  free energy    TOTEN  =       -63.50223031 eV

  energy without entropy =      -63.34557299  energy(sigma->0) =      -63.45001121


--------------------------------------------------------------------------------------------------------




--------------------------------------- Iteration      1(   3)  ---------------------------------------


     EDDAV:  cpu time    6.5453: real time    6.5483
       DOS:  cpu time    0.0045: real time    0.0045
    --------------------------------------------
      LOOP:  cpu time    6.5498: real time    6.5528

 eigenvalue-minimisations  :  6512
 total energy-change (2. order) :-0.5685910E+02  (-0.5367884E+02)
 number of electron     210.0000000 magnetization 
 augmentation part      210.0000000 magnetization 

 Free energy of the ion-electron system (eV)
  ---------------------------------------------------
  alpha Z        PSCENC =       361.59275062
  Ewald energy   TEWEN  =    107049.56073700
  -Hartree energ DENC   =   -124475.54567609
  -exchange      EXHF   =         0.00000000
  -V(xc)+E(xc)   XCENC  =      -548.60550801
  PAW double counting   =     16589.83781407   -15347.76008947
  entropy T*S    EENTRO =        -0.42599617
  eigenvalues    EBANDS =      -522.60916213
  atomic energy  EATOM  =     16773.59380047
  Solvation  Ediel_sol  =         0.00000000
  ---------------------------------------------------
  free energy    TOTEN  =      -120.36132971 eV

  energy without entropy =     -119.93533354  energy(sigma->0) =     -120.21933098


--------------------------------------------------------------------------------------------------------




--------------------------------------- Iteration      1(   4)  ---------------------------------------


     EDDAV:  cpu time    6.6311: real time    6.6335
       DOS:  cpu time    0.0048: real time    0.0048
    --------------------------------------------
      LOOP:  cpu time    6.6359: real time    6.6383

 eigenvalue-minimisations  :  6688
 total energy-change (2. order) :-0.1178566E+01  (-0.1172955E+01)
 number of electron     210.0000000 magnetization 
 augmentation part      210.0000000 magnetization 

 Free energy of the ion-electron system (eV)
  ---------------------------------------------------
  alpha Z        PSCENC =       361.59275062
  Ewald energy   TEWEN  =    107049.56073700
  -Hartree energ DENC   =   -124475.54567609
  -exchange      EXHF   =         0.00000000
  -V(xc)+E(xc)   XCENC  =      -548.60550801
  PAW double counting   =     16589.83781407   -15347.76008947
  entropy T*S    EENTRO =        -0.42702058
  eigenvalues    EBANDS =      -523.78670364
  atomic energy  EATOM  =     16773.59380047
  Solvation  Ediel_sol  =         0.00000000
  ---------------------------------------------------
  free energy    TOTEN  =      -121.53989563 eV

  energy without entropy =     -121.11287505  energy(sigma->0) =     -121.39755543


--------------------------------------------------------------------------------------------------------




--------------------------------------- Iteration      1(   5)  ---------------------------------------


     EDDAV:  cpu time    6.9184: real time    6.9288
       DOS:  cpu time    0.0055: real time    0.0055
    CHARGE:  cpu time    0.2246: real time    0.2247
    MIXING:  cpu time    0.0018: real time    0.0018
    --------------------------------------------
      LOOP:  cpu time    7.1502: real time    7.1608

 eigenvalue-minimisations  :  7048
 total energy-change (2. order) :-0.3977755E-01  (-0.3977092E-01)
 number of electron     209.9999754 magnetization 
 augmentation part       81.2807320 magnetization 

 Broyden mixing:
  rms(total) = 0.29517E+01    rms(broyden)= 0.29512E+01
  rms(prec ) = 0.29891E+01
  weight for this iteration     100.00

 Free energy of the ion-electron system (eV)
  ---------------------------------------------------
  alpha Z        PSCENC =       361.59275062
  Ewald energy   TEWEN  =    107049.56073700
  -Hartree energ DENC   =   -124475.54567609
  -exchange      EXHF   =         0.00000000
  -V(xc)+E(xc)   XCENC  =      -548.60550801
  PAW double counting   =     16589.83781407   -15347.76008947
  entropy T*S    EENTRO =        -0.42704164
  eigenvalues    EBANDS =      -523.82646013
  atomic energy  EATOM  =     16773.59380047
  Solvation  Ediel_sol  =         0.00000000
  ---------------------------------------------------
  free energy    TOTEN  =      -121.57967318 eV

  energy without entropy =     -121.15263153  energy(sigma->0) =     -121.43732596


--------------------------------------------------------------------------------------------------------




--------------------------------------- Iteration      1(   6)  ---------------------------------------


    POTLOK:  cpu time    0.0280: real time    0.0290
    SETDIJ:  cpu time    0.0033: real time    0.0032
     EDDAV:  cpu time    6.4616: real time    6.4634
       DOS:  cpu time    0.0047: real time    0.0047
    CHARGE:  cpu time    0.2254: real time    0.2256
    MIXING:  cpu time    0.0015: real time    0.0014
    --------------------------------------------
      LOOP:  cpu time    6.7244: real time    6.7273

 eigenvalue-minimisations  :  6464
 total energy-change (2. order) : 0.4739831E+01  (-0.1731111E+01)
 number of electron     209.9999743 magnetization 
 augmentation part       84.8235503 magnetization 

 Broyden mixing:
  rms(total) = 0.16483E+01    rms(broyden)= 0.16480E+01
  rms(prec ) = 0.17594E+01
  weight for this iteration     100.00

 eigenvalues of (default mixing * dielectric matrix)
  average eigenvalue GAMMA=   1.2620
  1.2620

 Free energy of the ion-electron system (eV)
  ---------------------------------------------------
  alpha Z        PSCENC =       361.59275062
  Ewald energy   TEWEN  =    107049.56073700
  -Hartree energ DENC   =   -124378.01389090
  -exchange      EXHF   =         0.00000000
  -V(xc)+E(xc)   XCENC  =      -551.97743630
  PAW double counting   =     17797.39055079   -16579.90661708
  entropy T*S    EENTRO =        -0.39171883
  eigenvalues    EBANDS =      -588.68801808
  atomic energy  EATOM  =     16773.59380047
  Solvation  Ediel_sol  =         0.00000000
  ---------------------------------------------------
  free energy    TOTEN  =      -116.83984230 eV

  energy without entropy =     -116.44812348  energy(sigma->0) =     -116.70926936


--------------------------------------------------------------------------------------------------------




--------------------------------------- Iteration      1(   7)  ---------------------------------------


    POTLOK:  cpu time    0.0257: real time    0.0258
    SETDIJ:  cpu time    0.0033: real time    0.0033
     EDDAV:  cpu time    6.6160: real time    6.6175
       DOS:  cpu time    0.0047: real time    0.0047
    CHARGE:  cpu time    0.2255: real time    0.2256
    MIXING:  cpu time    0.0018: real time    0.0018
    --------------------------------------------
      LOOP:  cpu time    6.8769: real time    6.8787

 eigenvalue-minimisations  :  6696
 total energy-change (2. order) :-0.4578687E+02  (-0.5442214E+01)
 number of electron     209.9999734 magnetization 
 augmentation part       81.9706451 magnetization 

 Broyden mixing:
  rms(total) = 0.49496E+01    rms(broyden)= 0.49494E+01
  rms(prec ) = 0.76772E+01
  weight for this iteration     100.00

 eigenvalues of (default mixing * dielectric matrix)
  average eigenvalue GAMMA=   0.8099
  1.4873  0.1324

 Free energy of the ion-electron system (eV)
  ---------------------------------------------------
  alpha Z        PSCENC =       361.59275062
  Ewald energy   TEWEN  =    107049.56073700
  -Hartree energ DENC   =   -124454.22980761
  -exchange      EXHF   =         0.00000000
  -V(xc)+E(xc)   XCENC  =      -552.31440508
  PAW double counting   =     18652.72599859   -17444.79989115
  entropy T*S    EENTRO =        -0.06001434
  eigenvalues    EBANDS =      -548.69587908
  atomic energy  EATOM  =     16773.59380047
  Solvation  Ediel_sol  =         0.00000000
  ---------------------------------------------------
  free energy    TOTEN  =      -162.62671058 eV

  energy without entropy =     -162.56669625  energy(sigma->0) =     -162.60670580


--------------------------------------------------------------------------------------------------------




--------------------------------------- Iteration      1(   8)  ---------------------------------------


    POTLOK:  cpu time    0.0257: real time    0.0260
    SETDIJ:  cpu time    0.0033: real time    0.0033
     EDDAV:  cpu time    6.8332: real time    6.8361
       DOS:  cpu time    0.0046: real time    0.0046
    CHARGE:  cpu time    0.2252: real time    0.2252
    MIXING:  cpu time    0.0019: real time    0.0019
    --------------------------------------------
      LOOP:  cpu time    7.0938: real time    7.0971

 eigenvalue-minimisations  :  6944
 total energy-change (2. order) : 0.4125834E+02  (-0.4264406E+01)
 number of electron     209.9999746 magnetization 
 augmentation part       84.4006922 magnetization 

 Broyden mixing:
  rms(total) = 0.21320E+01    rms(broyden)= 0.21317E+01
  rms(prec ) = 0.25841E+01
  weight for this iteration     100.00

 eigenvalues of (default mixing * dielectric matrix)
  average eigenvalue GAMMA=   0.6894
  1.6455  0.3197  0.1030

 Free energy of the ion-electron system (eV)
  ---------------------------------------------------
  alpha Z        PSCENC =       361.59275062
  Ewald energy   TEWEN  =    107049.56073700
  -Hartree energ DENC   =   -124484.47018078
  -exchange      EXHF   =         0.00000000
  -V(xc)+E(xc)   XCENC  =      -552.70619966
  PAW double counting   =     18918.65156890   -17715.40795211
  entropy T*S    EENTRO =        -0.14172442
  eigenvalues    EBANDS =      -472.04117054
  atomic energy  EATOM  =     16773.59380047
  Solvation  Ediel_sol  =         0.00000000
  ---------------------------------------------------
  free energy    TOTEN  =      -121.36837050 eV

  energy without entropy =     -121.22664609  energy(sigma->0) =     -121.32112903


--------------------------------------------------------------------------------------------------------




--------------------------------------- Iteration      1(   9)  ---------------------------------------


    POTLOK:  cpu time    0.0274: real time    0.0277
    SETDIJ:  cpu time    0.0035: real time    0.0035
     EDDAV:  cpu time    6.3212: real time    6.3228
       DOS:  cpu time    0.0049: real time    0.0049
    CHARGE:  cpu time    0.2252: real time    0.2255
    MIXING:  cpu time    0.0020: real time    0.0020
    --------------------------------------------
      LOOP:  cpu time    6.5841: real time    6.5862

 eigenvalue-minimisations  :  6240
 total energy-change (2. order) : 0.8602046E+00  (-0.1816800E+01)
 number of electron     209.9999722 magnetization 
 augmentation part       84.9141448 magnetization 

 Broyden mixing:
  rms(total) = 0.21038E+01    rms(broyden)= 0.21035E+01
  rms(prec ) = 0.30290E+01
  weight for this iteration     100.00

 eigenvalues of (default mixing * dielectric matrix)
  average eigenvalue GAMMA=   0.7107
  1.9663  0.6408  0.1178  0.1178

 Free energy of the ion-electron system (eV)
  ---------------------------------------------------
  alpha Z        PSCENC =       361.59275062
  Ewald energy   TEWEN  =    107049.56073700
  -Hartree energ DENC   =   -124392.04530808
  -exchange      EXHF   =         0.00000000
  -V(xc)+E(xc)   XCENC  =      -552.68966738
  PAW double counting   =     19115.68105146   -17914.72205442
  entropy T*S    EENTRO =        -0.10714408
  eigenvalues    EBANDS =      -561.37233153
  atomic energy  EATOM  =     16773.59380047
  Solvation  Ediel_sol  =         0.00000000
  ---------------------------------------------------
  free energy    TOTEN  =      -120.50816594 eV

  energy without entropy =     -120.40102186  energy(sigma->0) =     -120.47245125


--------------------------------------------------------------------------------------------------------




--------------------------------------- Iteration      1(  10)  ---------------------------------------


    POTLOK:  cpu time    0.0266: real time    0.0268
    SETDIJ:  cpu time    0.0031: real time    0.0031
     EDDAV:  cpu time    6.2929: real time    6.2946
       DOS:  cpu time    0.0048: real time    0.0048
    CHARGE:  cpu time    0.2260: real time    0.2261
    MIXING:  cpu time    0.0018: real time    0.0018
    --------------------------------------------
      LOOP:  cpu time    6.5553: real time    6.5573

 eigenvalue-minimisations  :  6280
 total energy-change (2. order) : 0.4522219E+00  (-0.2433884E+01)
 number of electron     209.9999741 magnetization 
 augmentation part       84.7932401 magnetization 

 Broyden mixing:
  rms(total) = 0.16123E+01    rms(broyden)= 0.16119E+01
  rms(prec ) = 0.20391E+01
  weight for this iteration     100.00

 eigenvalues of (default mixing * dielectric matrix)
  average eigenvalue GAMMA=   0.6990
  2.1569  0.8575  0.2631  0.1088  0.1088

 Free energy of the ion-electron system (eV)
  ---------------------------------------------------
  alpha Z        PSCENC =       361.59275062
  Ewald energy   TEWEN  =    107049.56073700
  -Hartree energ DENC   =   -124457.15248776
  -exchange      EXHF   =         0.00000000
  -V(xc)+E(xc)   XCENC  =      -552.86323081
  PAW double counting   =     19481.85803754   -18285.47710696
  entropy T*S    EENTRO =        -0.21703414
  eigenvalues    EBANDS =      -490.95140997
  atomic energy  EATOM  =     16773.59380047
  Solvation  Ediel_sol  =         0.00000000
  ---------------------------------------------------
  free energy    TOTEN  =      -120.05594402 eV

  energy without entropy =     -119.83890988  energy(sigma->0) =     -119.98359930


--------------------------------------------------------------------------------------------------------




--------------------------------------- Iteration      1(  11)  ---------------------------------------


    POTLOK:  cpu time    0.0259: real time    0.0288
    SETDIJ:  cpu time    0.0029: real time    0.0029
     EDDAV:  cpu time    6.3188: real time    6.3204
       DOS:  cpu time    0.0048: real time    0.0048
    CHARGE:  cpu time    0.2253: real time    0.2254
    MIXING:  cpu time    0.0021: real time    0.0021
    --------------------------------------------
      LOOP:  cpu time    6.5797: real time    6.5844

 eigenvalue-minimisations  :  6256
 total energy-change (2. order) : 0.2213862E+01  (-0.5383710E+00)
 number of electron     209.9999738 magnetization 
 augmentation part       85.0597167 magnetization 

 Broyden mixing:
  rms(total) = 0.12869E+01    rms(broyden)= 0.12867E+01
  rms(prec ) = 0.15975E+01
  weight for this iteration     100.00

 eigenvalues of (default mixing * dielectric matrix)
  average eigenvalue GAMMA=   0.6255
  2.1652  0.8795  0.2407  0.2407  0.1134  0.1134

 Free energy of the ion-electron system (eV)
  ---------------------------------------------------
  alpha Z        PSCENC =       361.59275062
  Ewald energy   TEWEN  =    107049.56073700
  -Hartree energ DENC   =   -124432.31890479
  -exchange      EXHF   =         0.00000000
  -V(xc)+E(xc)   XCENC  =      -552.67458914
  PAW double counting   =     19686.92729029   -18491.94150924
  entropy T*S    EENTRO =        -0.27179365
  eigenvalues    EBANDS =      -512.30986342
  atomic energy  EATOM  =     16773.59380047
  Solvation  Ediel_sol  =         0.00000000
  ---------------------------------------------------
  free energy    TOTEN  =      -117.84208186 eV

  energy without entropy =     -117.57028822  energy(sigma->0) =     -117.75148398


--------------------------------------------------------------------------------------------------------




--------------------------------------- Iteration      1(  12)  ---------------------------------------


    POTLOK:  cpu time    0.0255: real time    0.0257
    SETDIJ:  cpu time    0.0033: real time    0.0033
     EDDAV:  cpu time    6.2663: real time    6.2684
       DOS:  cpu time    0.0048: real time    0.0048
    CHARGE:  cpu time    0.2256: real time    0.2257
    MIXING:  cpu time    0.0020: real time    0.0020
    --------------------------------------------
      LOOP:  cpu time    6.5275: real time    6.5298

 eigenvalue-minimisations  :  6192
 total energy-change (2. order) : 0.1112716E+01  (-0.1784628E+00)
 number of electron     209.9999739 magnetization 
 augmentation part       84.9735793 magnetization 

 Broyden mixing:
  rms(total) = 0.90837E+00    rms(broyden)= 0.90825E+00
  rms(prec ) = 0.13945E+01
  weight for this iteration     100.00

 eigenvalues of (default mixing * dielectric matrix)
  average eigenvalue GAMMA=   0.5936
  2.0386  0.9073  0.4158  0.3428  0.1104  0.1104  0.2302

 Free energy of the ion-electron system (eV)
  ---------------------------------------------------
  alpha Z        PSCENC =       361.59275062
  Ewald energy   TEWEN  =    107049.56073700
  -Hartree energ DENC   =   -124437.59930312
  -exchange      EXHF   =         0.00000000
  -V(xc)+E(xc)   XCENC  =      -552.56161902
  PAW double counting   =     19726.48533914   -18531.17378701
  entropy T*S    EENTRO =        -0.28022903
  eigenvalues    EBANDS =      -506.34705465
  atomic energy  EATOM  =     16773.59380047
  Solvation  Ediel_sol  =         0.00000000
  ---------------------------------------------------
  free energy    TOTEN  =      -116.72936560 eV

  energy without entropy =     -116.44913657  energy(sigma->0) =     -116.63595592


--------------------------------------------------------------------------------------------------------




--------------------------------------- Iteration      1(  13)  ---------------------------------------


    POTLOK:  cpu time    0.0256: real time    0.0258
    SETDIJ:  cpu time    0.0033: real time    0.0033
     EDDAV:  cpu time    6.3721: real time    6.3740
       DOS:  cpu time    0.0047: real time    0.0047
    CHARGE:  cpu time    0.2048: real time    0.2049
    MIXING:  cpu time    0.0024: real time    0.0024
    --------------------------------------------
      LOOP:  cpu time    6.6128: real time    6.6150

 eigenvalue-minimisations  :  6312
 total energy-change (2. order) : 0.3923715E+00  (-0.3159372E+00)
 number of electron     209.9999739 magnetization 
 augmentation part       84.7508451 magnetization 

 Broyden mixing:
  rms(total) = 0.72906E+00    rms(broyden)= 0.72889E+00
  rms(prec ) = 0.94582E+00
  weight for this iteration     100.00

 eigenvalues of (default mixing * dielectric matrix)
  average eigenvalue GAMMA=   0.6423
  2.3003  0.8047  0.6855  0.6855  0.1106  0.1106  0.2221  0.2192

 Free energy of the ion-electron system (eV)
  ---------------------------------------------------
  alpha Z        PSCENC =       361.59275062
  Ewald energy   TEWEN  =    107049.56073700
  -Hartree energ DENC   =   -124453.80259611
  -exchange      EXHF   =         0.00000000
  -V(xc)+E(xc)   XCENC  =      -552.32252229
  PAW double counting   =     19709.73160019   -18512.65760518
  entropy T*S    EENTRO =        -0.32517818
  eigenvalues    EBANDS =      -491.70798064
  atomic energy  EATOM  =     16773.59380047
  Solvation  Ediel_sol  =         0.00000000
  ---------------------------------------------------
  free energy    TOTEN  =      -116.33699413 eV

  energy without entropy =     -116.01181595  energy(sigma->0) =     -116.22860140


--------------------------------------------------------------------------------------------------------




--------------------------------------- Iteration      1(  14)  ---------------------------------------


    POTLOK:  cpu time    0.0265: real time    0.0274
    SETDIJ:  cpu time    0.0030: real time    0.0030
     EDDAV:  cpu time    6.2801: real time    6.2818
       DOS:  cpu time    0.0052: real time    0.0052
    CHARGE:  cpu time    0.2257: real time    0.2258
    MIXING:  cpu time    0.0025: real time    0.0025
    --------------------------------------------
      LOOP:  cpu time    6.5432: real time    6.5458

 eigenvalue-minimisations  :  6208
 total energy-change (2. order) : 0.3279293E+00  (-0.1053157E+00)
 number of electron     209.9999741 magnetization 
 augmentation part       84.8583488 magnetization 

 Broyden mixing:
  rms(total) = 0.28671E+00    rms(broyden)= 0.28652E+00
  rms(prec ) = 0.33212E+00
  weight for this iteration     100.00

 eigenvalues of (default mixing * dielectric matrix)
  average eigenvalue GAMMA=   0.6310
  2.3510  0.8340  0.7624  0.7624  0.3316  0.1105  0.1105  0.2188  0.1979

 Free energy of the ion-electron system (eV)
  ---------------------------------------------------
  alpha Z        PSCENC =       361.59275062
  Ewald energy   TEWEN  =    107049.56073700
  -Hartree energ DENC   =   -124448.01397132
  -exchange      EXHF   =         0.00000000
  -V(xc)+E(xc)   XCENC  =      -552.45568773
  PAW double counting   =     19780.63429029   -18584.94425201
  entropy T*S    EENTRO =        -0.41687171
  eigenvalues    EBANDS =      -495.55986038
  atomic energy  EATOM  =     16773.59380047
  Solvation  Ediel_sol  =         0.00000000
  ---------------------------------------------------
  free energy    TOTEN  =      -116.00906479 eV

  energy without entropy =     -115.59219307  energy(sigma->0) =     -115.87010755


--------------------------------------------------------------------------------------------------------




--------------------------------------- Iteration      1(  15)  ---------------------------------------


    POTLOK:  cpu time    0.0261: real time    0.0266
    SETDIJ:  cpu time    0.0033: real time    0.0033
     EDDAV:  cpu time    6.2110: real time    6.2125
       DOS:  cpu time    0.0052: real time    0.0051
    CHARGE:  cpu time    0.2257: real time    0.2258
    MIXING:  cpu time    0.0022: real time    0.0022
    --------------------------------------------
      LOOP:  cpu time    6.4735: real time    6.4756

 eigenvalue-minimisations  :  6112
 total energy-change (2. order) : 0.2630748E-01  (-0.2620820E-01)
 number of electron     209.9999743 magnetization 
 augmentation part       84.8699737 magnetization 

 Broyden mixing:
  rms(total) = 0.24048E+00    rms(broyden)= 0.24042E+00
  rms(prec ) = 0.34578E+00
  weight for this iteration     100.00

 eigenvalues of (default mixing * dielectric matrix)
  average eigenvalue GAMMA=   0.6260
  2.3386  0.8840  0.8840  0.8216  0.3873  0.1105  0.1105  0.2734  0.2448  0.2058

 Free energy of the ion-electron system (eV)
  ---------------------------------------------------
  alpha Z        PSCENC =       361.59275062
  Ewald energy   TEWEN  =    107049.56073700
  -Hartree energ DENC   =   -124452.61180562
  -exchange      EXHF   =         0.00000000
  -V(xc)+E(xc)   XCENC  =      -552.48599534
  PAW double counting   =     19792.51537837   -18597.09971891
  entropy T*S    EENTRO =        -0.42035354
  eigenvalues    EBANDS =      -490.62755035
  atomic energy  EATOM  =     16773.59380047
  Solvation  Ediel_sol  =         0.00000000
  ---------------------------------------------------
  free energy    TOTEN  =      -115.98275731 eV

  energy without entropy =     -115.56240377  energy(sigma->0) =     -115.84263946


--------------------------------------------------------------------------------------------------------




--------------------------------------- Iteration      1(  16)  ---------------------------------------


    POTLOK:  cpu time    0.0258: real time    0.0261
    SETDIJ:  cpu time    0.0032: real time    0.0032
     EDDAV:  cpu time    6.1557: real time    6.1572
       DOS:  cpu time    0.0049: real time    0.0049
    CHARGE:  cpu time    0.2259: real time    0.2261
    MIXING:  cpu time    0.0028: real time    0.0028
    --------------------------------------------
      LOOP:  cpu time    6.4184: real time    6.4203

 eigenvalue-minimisations  :  6024
 total energy-change (2. order) :-0.1310813E-01  (-0.5661482E-02)
 number of electron     209.9999743 magnetization 
 augmentation part       84.8524963 magnetization 

 Broyden mixing:
  rms(total) = 0.27782E+00    rms(broyden)= 0.27780E+00
  rms(prec ) = 0.40753E+00
  weight for this iteration     100.00

 eigenvalues of (default mixing * dielectric matrix)
  average eigenvalue GAMMA=   0.6435
  2.3342  0.9925  0.9925  0.8073  0.5159  0.5159  0.1105  0.1105  0.2799  0.2096
  0.2096

 Free energy of the ion-electron system (eV)
  ---------------------------------------------------
  alpha Z        PSCENC =       361.59275062
  Ewald energy   TEWEN  =    107049.56073700
  -Hartree energ DENC   =   -124459.04043378
  -exchange      EXHF   =         0.00000000
  -V(xc)+E(xc)   XCENC  =      -552.45734699
  PAW double counting   =     19778.40411702   -18582.73200471
  entropy T*S    EENTRO =        -0.42795003
  eigenvalues    EBANDS =      -484.48953504
  atomic energy  EATOM  =     16773.59380047
  Solvation  Ediel_sol  =         0.00000000
  ---------------------------------------------------
  free energy    TOTEN  =      -115.99586544 eV

  energy without entropy =     -115.56791541  energy(sigma->0) =     -115.85321543


--------------------------------------------------------------------------------------------------------




--------------------------------------- Iteration      1(  17)  ---------------------------------------


    POTLOK:  cpu time    0.0258: real time    0.0259
    SETDIJ:  cpu time    0.0032: real time    0.0031
     EDDAV:  cpu time    6.2614: real time    6.2632
       DOS:  cpu time    0.0053: real time    0.0053
    CHARGE:  cpu time    0.2286: real time    0.2287
    MIXING:  cpu time    0.0024: real time    0.0024
    --------------------------------------------
      LOOP:  cpu time    6.5267: real time    6.5286

 eigenvalue-minimisations  :  6208
 total energy-change (2. order) : 0.2619809E-01  (-0.3237188E-02)
 number of electron     209.9999743 magnetization 
 augmentation part       84.8314371 magnetization 

 Broyden mixing:
  rms(total) = 0.20183E+00    rms(broyden)= 0.20182E+00
  rms(prec ) = 0.29609E+00
  weight for this iteration     100.00

 eigenvalues of (default mixing * dielectric matrix)
  average eigenvalue GAMMA=   0.6881
  2.3397  1.3009  1.3009  0.6829  0.6829  0.7306  0.1105  0.1105  0.3165  0.2119
  0.2119  0.2585

 Free energy of the ion-electron system (eV)
  ---------------------------------------------------
  alpha Z        PSCENC =       361.59275062
  Ewald energy   TEWEN  =    107049.56073700
  -Hartree energ DENC   =   -124462.99545315
  -exchange      EXHF   =         0.00000000
  -V(xc)+E(xc)   XCENC  =      -552.41649956
  PAW double counting   =     19769.24512630   -18573.33016117
  entropy T*S    EENTRO =        -0.43288575
  eigenvalues    EBANDS =      -480.78708212
  atomic energy  EATOM  =     16773.59380047
  Solvation  Ediel_sol  =         0.00000000
  ---------------------------------------------------
  free energy    TOTEN  =      -115.96966736 eV

  energy without entropy =     -115.53678161  energy(sigma->0) =     -115.82537211


--------------------------------------------------------------------------------------------------------




--------------------------------------- Iteration      1(  18)  ---------------------------------------


    POTLOK:  cpu time    0.0253: real time    0.0256
    SETDIJ:  cpu time    0.0032: real time    0.0033
     EDDAV:  cpu time    6.2183: real time    6.2203
       DOS:  cpu time    0.0047: real time    0.0047
    CHARGE:  cpu time    0.1982: real time    0.1983
    MIXING:  cpu time    0.0022: real time    0.0022
    --------------------------------------------
      LOOP:  cpu time    6.4519: real time    6.4542

 eigenvalue-minimisations  :  6128
 total energy-change (2. order) : 0.2678898E-01  (-0.5194803E-02)
 number of electron     209.9999742 magnetization 
 augmentation part       84.8063856 magnetization 

 Broyden mixing:
  rms(total) = 0.92614E-01    rms(broyden)= 0.92583E-01
  rms(prec ) = 0.12649E+00
  weight for this iteration     100.00

 eigenvalues of (default mixing * dielectric matrix)
  average eigenvalue GAMMA=   0.7084
  2.3206  1.5185  1.5185  0.7143  0.7143  0.6860  0.5673  0.1105  0.1105  0.2846
  0.2104  0.2104  0.2437

 Free energy of the ion-electron system (eV)
  ---------------------------------------------------
  alpha Z        PSCENC =       361.59275062
  Ewald energy   TEWEN  =    107049.56073700
  -Hartree energ DENC   =   -124469.40917125
  -exchange      EXHF   =         0.00000000
  -V(xc)+E(xc)   XCENC  =      -552.34945373
  PAW double counting   =     19752.38615426   -18556.07722934
  entropy T*S    EENTRO =        -0.43488284
  eigenvalues    EBANDS =      -474.80558356
  atomic energy  EATOM  =     16773.59380047
  Solvation  Ediel_sol  =         0.00000000
  ---------------------------------------------------
  free energy    TOTEN  =      -115.94287838 eV

  energy without entropy =     -115.50799553  energy(sigma->0) =     -115.79791743


--------------------------------------------------------------------------------------------------------




--------------------------------------- Iteration      1(  19)  ---------------------------------------


    POTLOK:  cpu time    0.0244: real time    0.0302
    SETDIJ:  cpu time    0.0028: real time    0.0028
     EDDAV:  cpu time    5.9683: real time    5.9722
       DOS:  cpu time    0.0049: real time    0.0049
    CHARGE:  cpu time    0.2273: real time    0.2274
    MIXING:  cpu time    0.0027: real time    0.0027
    --------------------------------------------
      LOOP:  cpu time    6.2304: real time    6.2402

 eigenvalue-minimisations  :  6168
 total energy-change (2. order) : 0.4381028E-02  (-0.1260827E-02)
 number of electron     209.9999743 magnetization 
 augmentation part       84.7894410 magnetization 

 Broyden mixing:
  rms(total) = 0.49593E-01    rms(broyden)= 0.49581E-01
  rms(prec ) = 0.66409E-01
  weight for this iteration     100.00

 eigenvalues of (default mixing * dielectric matrix)
  average eigenvalue GAMMA=   0.7034
  2.0758  2.0758  1.3741  0.7334  0.7334  0.7056  0.7056  0.1105  0.1105  0.2997
  0.2110  0.2110  0.2606  0.2405

 Free energy of the ion-electron system (eV)
  ---------------------------------------------------
  alpha Z        PSCENC =       361.59275062
  Ewald energy   TEWEN  =    107049.56073700
  -Hartree energ DENC   =   -124474.72837322
  -exchange      EXHF   =         0.00000000
  -V(xc)+E(xc)   XCENC  =      -552.31282403
  PAW double counting   =     19742.45688232   -18545.93425902
  entropy T*S    EENTRO =        -0.43991358
  eigenvalues    EBANDS =      -469.72729790
  atomic energy  EATOM  =     16773.59380047
  Solvation  Ediel_sol  =         0.00000000
  ---------------------------------------------------
  free energy    TOTEN  =      -115.93849735 eV

  energy without entropy =     -115.49858376  energy(sigma->0) =     -115.79185949


--------------------------------------------------------------------------------------------------------




--------------------------------------- Iteration      1(  20)  ---------------------------------------


    POTLOK:  cpu time    0.0283: real time    0.0287
    SETDIJ:  cpu time    0.0032: real time    0.0032
     EDDAV:  cpu time    6.3229: real time    6.3249
       DOS:  cpu time    0.0046: real time    0.0046
    CHARGE:  cpu time    0.2267: real time    0.2269
    MIXING:  cpu time    0.0023: real time    0.0023
    --------------------------------------------
      LOOP:  cpu time    6.5880: real time    6.5906

 eigenvalue-minimisations  :  6256
 total energy-change (2. order) : 0.2110785E-02  (-0.4983244E-03)
 number of electron     209.9999743 magnetization 
 augmentation part       84.7795278 magnetization 

 Broyden mixing:
  rms(total) = 0.14166E-01    rms(broyden)= 0.14148E-01
  rms(prec ) = 0.17654E-01
  weight for this iteration     100.00

 eigenvalues of (default mixing * dielectric matrix)
  average eigenvalue GAMMA=   0.7555
  2.0972  1.9562  1.9562  1.0752  0.7232  0.7232  0.6909  0.6909  0.1105  0.1105
  0.2937  0.2107  0.2107  0.2485  0.2349

 Free energy of the ion-electron system (eV)
  ---------------------------------------------------
  alpha Z        PSCENC =       361.59275062
  Ewald energy   TEWEN  =    107049.56073700
  -Hartree energ DENC   =   -124478.03924890
  -exchange      EXHF   =         0.00000000
  -V(xc)+E(xc)   XCENC  =      -552.29109689
  PAW double counting   =     19737.58284265   -18540.93316853
  entropy T*S    EENTRO =        -0.44104963
  eigenvalues    EBANDS =      -466.56195336
  atomic energy  EATOM  =     16773.59380047
  Solvation  Ediel_sol  =         0.00000000
  ---------------------------------------------------
  free energy    TOTEN  =      -115.93638656 eV

  energy without entropy =     -115.49533693  energy(sigma->0) =     -115.78937002


--------------------------------------------------------------------------------------------------------




--------------------------------------- Iteration      1(  21)  ---------------------------------------


    POTLOK:  cpu time    0.0235: real time    0.0251
    SETDIJ:  cpu time    0.0029: real time    0.0029
     EDDAV:  cpu time    6.2383: real time    6.2445
       DOS:  cpu time    0.0051: real time    0.0051
    CHARGE:  cpu time    0.2262: real time    0.2264
    MIXING:  cpu time    0.0032: real time    0.0032
    --------------------------------------------
      LOOP:  cpu time    6.4993: real time    6.5071

 eigenvalue-minimisations  :  6152
 total energy-change (2. order) : 0.7677252E-04  (-0.1446716E-03)
 number of electron     209.9999743 magnetization 
 augmentation part       84.7723706 magnetization 

 Broyden mixing:
  rms(total) = 0.14417E-01    rms(broyden)= 0.14411E-01
  rms(prec ) = 0.20035E-01
  weight for this iteration     100.00

 eigenvalues of (default mixing * dielectric matrix)
  average eigenvalue GAMMA=   0.7737
  2.1865  2.1865  1.8468  1.2002  0.7282  0.7282  0.7640  0.6569  0.6569  0.1105
  0.1105  0.2955  0.2545  0.2106  0.2106  0.2324

 Free energy of the ion-electron system (eV)
  ---------------------------------------------------
  alpha Z        PSCENC =       361.59275062
  Ewald energy   TEWEN  =    107049.56073700
  -Hartree energ DENC   =   -124480.85151675
  -exchange      EXHF   =         0.00000000
  -V(xc)+E(xc)   XCENC  =      -552.27978683
  PAW double counting   =     19739.41558051   -18542.73101771
  entropy T*S    EENTRO =        -0.44057309
  eigenvalues    EBANDS =      -463.79628401
  atomic energy  EATOM  =     16773.59380047
  Solvation  Ediel_sol  =         0.00000000
  ---------------------------------------------------
  free energy    TOTEN  =      -115.93630979 eV

  energy without entropy =     -115.49573670  energy(sigma->0) =     -115.78945209


--------------------------------------------------------------------------------------------------------




--------------------------------------- Iteration      1(  22)  ---------------------------------------


    POTLOK:  cpu time    0.0252: real time    0.0256
    SETDIJ:  cpu time    0.0031: real time    0.0031
     EDDAV:  cpu time    5.4537: real time    5.4558
       DOS:  cpu time    0.0050: real time    0.0050
    --------------------------------------------
      LOOP:  cpu time    5.4869: real time    5.4895

 eigenvalue-minimisations  :  5040
 total energy-change (2. order) : 0.8385833E-04  (-0.5260293E-04)
 number of electron     209.9999743 magnetization 
 augmentation part       84.7723706 magnetization 

 Free energy of the ion-electron system (eV)
  ---------------------------------------------------
  alpha Z        PSCENC =       361.59275062
  Ewald energy   TEWEN  =    107049.56073700
  -Hartree energ DENC   =   -124483.49653915
  -exchange      EXHF   =         0.00000000
  -V(xc)+E(xc)   XCENC  =      -552.26984604
  PAW double counting   =     19737.75520447   -18541.04373965
  entropy T*S    EENTRO =        -0.44066841
  eigenvalues    EBANDS =      -461.18792524
  atomic energy  EATOM  =     16773.59380047
  Solvation  Ediel_sol  =         0.00000000
  ---------------------------------------------------
  free energy    TOTEN  =      -115.93622593 eV

  energy without entropy =     -115.49555752  energy(sigma->0) =     -115.78933646


--------------------------------------------------------------------------------------------------------




 average (electrostatic) potential at core
  the test charge radii are     0.6991  0.7215  1.1199
  (the norm of the test charge is              1.0000)
       1 -56.7839       2 -77.7758       3 -79.2556       4 -79.5184       5 -79.5184
       6 -79.5184       7 -79.6633       8 -79.7138       9 -79.6633      10 -79.6633
      11 -79.7216      12 -79.3300      13 -79.7377      14 -79.6709      15 -79.6894
      16 -79.6894      17 -79.6894      18 -79.3300      19 -79.3244      20 -79.3300
      21 -79.7216      22 -79.7216
 
 
 
 E-fermi :   0.5057     XC(G=0):  -6.0565     alpha+bet : -6.5184


 k-point     1 :       0.0625    0.0625    0.0000
  band No.  band energies     occupation 
      1     -23.4267      2.00000
      2      -8.6639      2.00000
      3      -6.2521      2.00000
      4      -6.0815      2.00000
      5      -6.0810      2.00000
      6      -5.8997      2.00000
      7      -5.1084      2.00000
      8      -4.5002      2.00000
      9      -4.4051      2.00000
     10      -4.3997      2.00000
     11      -4.3968      2.00000
     12      -4.3074      2.00000
     13      -4.2965      2.00000
     14      -4.2924      2.00000
     15      -4.2237      2.00000
     16      -4.1506      2.00000
     17      -4.1374      2.00000
     18      -4.1364      2.00000
     19      -4.0861      2.00000
     20      -4.0361      2.00000
     21      -4.0248      2.00000
     22      -4.0230      2.00000
     23      -3.7973      2.00000
     24      -3.7903      2.00000
     25      -3.7318      2.00000
     26      -3.6630      2.00000
     27      -3.6547      2.00000
[...]
     41      -2.6410      2.00000
     42      -2.6373      2.00000
     43      -2.5235      2.00000
     44      -2.3055      2.00000
     45      -2.3002      2.00000
     46      -2.2603      2.00000
     47      -2.2131      2.00000
     48      -2.1687      2.00000
     49      -2.1412      2.00000
     50      -2.1287      2.00000
     51      -2.0831      2.00000
     52      -2.0517      2.00000
     53      -1.9980      2.00000
     54      -1.9820      2.00000
     55      -1.9198      2.00000
     56      -1.9082      2.00000
     57      -1.8780      2.00000
     58      -1.8673      2.00000
     59      -1.8089      2.00000
     60      -1.7657      2.00000
     61      -1.7385      2.00000
     62      -1.7026      2.00000
     63      -1.6134      2.00000
     64      -1.5958      2.00000
     65      -1.5327      2.00000
     66      -1.5266      2.00000
     67      -1.5140      2.00000
     68      -1.4695      2.00000
     69      -1.4227      2.00000
     70      -1.4096      2.00000
     71      -1.3470      2.00000
     72      -1.3212      2.00000
     73      -1.2730      2.00000
     74      -1.2317      2.00000
     75      -1.1916      2.00000
     76      -1.1800      2.00000
     77      -1.0959      2.00001
     78      -1.0618      2.00001
     79      -1.0424      2.00001
     80      -0.9764      2.00004
     81      -0.8874      2.00014
     82      -0.8827      2.00014
     83      -0.8585      2.00020
     84      -0.8244      2.00032
     85      -0.7766      2.00061
     86      -0.7418      2.00094
     87      -0.6864      2.00181
     88      -0.6695      2.00219
     89      -0.6484      2.00277
     90      -0.6280      2.00345
     91      -0.5878      2.00523
     92      -0.5746      2.00596
     93      -0.5618      2.00676
     94      -0.4656      2.01586
     95      -0.4234      2.02199
     96      -0.2963      2.04806
     97      -0.2119      2.06574
     98      -0.1823      2.06957
     99      -0.1100      2.06649
    100       0.0072      1.99018
    101       0.0165      1.97857
    102       0.1912      1.56817
    103       0.2168      1.47813
    104       0.2626      1.30234
    105       0.2997      1.15039
    106       0.3036      1.13377
    107       0.3379      0.98919
    108       0.4038      0.71498
    109       0.4889      0.40044
    110       0.4900      0.39673
    111       1.1802     -0.01095
    112       1.7886     -0.00000
    113       2.4064     -0.00000
    114       2.5378     -0.00000
    115       2.7353     -0.00000
    116       2.7754     -0.00000
    117       3.0897     -0.00000
    118       3.3629     -0.00000
    119       3.4557     -0.00000
    120       3.8225     -0.00000
    121       4.3846     -0.00000
    122       4.4484     -0.00000
    123       4.8373     -0.00000
    124       5.1452     -0.00000
    125       5.8449     -0.00000
    126       5.9300     -0.00000
    127       6.6593     -0.00000
    128       6.8482     -0.00000
    129       7.3404     -0.00000
    130       7.4649     -0.00000
    131       7.5541     -0.00000
    132       7.5821     -0.00000
    133       7.9092     -0.00000
    134       8.2251     -0.00000
    135       8.3033     -0.00000
    136       8.5522     -0.00000
    137       8.5894     -0.00000
    138       8.6836     -0.00000
    139       8.7961     -0.00000
    140       8.9427     -0.00000
    141       9.1786     -0.00000
    142       9.3625     -0.00000
    143       9.4960     -0.00000
    144       9.5621     -0.00000

 k-point    20 :      -0.4375    0.4375    0.0000
  band No.  band energies     occupation 
      1     -22.2088      2.00000
      2      -9.3828      2.00000
      3      -6.1360      2.00000
      4      -5.9275      2.00000
      5      -5.8269      2.00000
      6      -4.5992      2.00000
      7      -4.5760      2.00000
      8      -4.1218      2.00000
      9      -4.0913      2.00000
     10      -3.8346      2.00000
     11      -3.8301      2.00000
     12      -3.8215      2.00000
     13      -3.8060      2.00000
     14      -3.7701      2.00000
     15      -3.7362      2.00000
     16      -3.5936      2.00000
     17      -3.5539      2.00000
     18      -3.5395      2.00000
     19      -3.4911      2.00000
     20      -3.4753      2.00000
     21      -3.4636      2.00000
     22      -3.4381      2.00000
     23      -3.3267      2.00000
     24      -3.2960      2.00000
     25      -3.2175      2.00000
     26      -3.2075      2.00000
     27      -3.1973      2.00000
     28      -3.1929      2.00000
     29      -3.1207      2.00000
     30      -3.0732      2.00000
     31      -3.0621      2.00000
     32      -3.0359      2.00000
     33      -3.0132      2.00000
     34      -2.9924      2.00000
     35      -2.8990      2.00000
     36      -2.8241      2.00000
     37      -2.8141      2.00000
     38      -2.7211      2.00000
     39      -2.6751      2.00000
     40      -2.6629      2.00000
     41      -2.6561      2.00000
     42      -2.6011      2.00000
     43      -2.5816      2.00000
     44      -2.4291      2.00000
     45      -2.3881      2.00000
     46      -2.3444      2.00000
     47      -2.2654      2.00000
     48      -2.2256      2.00000
     49      -2.2063      2.00000
     50      -2.1866      2.00000
     51      -2.1501      2.00000
     52      -2.0953      2.00000
     53      -2.0471      2.00000
     54      -2.0122      2.00000
     55      -2.0090      2.00000
     56      -1.9780      2.00000
     57      -1.9117      2.00000
     58      -1.8774      2.00000
     59      -1.8635      2.00000
     60      -1.8450      2.00000
     61      -1.8054      2.00000
     62      -1.7899      2.00000
     63      -1.7368      2.00000
     64      -1.7076      2.00000
     65      -1.6768      2.00000
     66      -1.6217      2.00000
     67      -1.6207      2.00000
     68      -1.5837      2.00000
     69      -1.4301      2.00000
     70      -1.4096      2.00000
     71      -1.3474      2.00000
     72      -1.2493      2.00000
     73      -1.2398      2.00000
     74      -1.2278      2.00000
     75      -1.1766      2.00000
     76      -1.1614      2.00000
     77      -1.1103      2.00000
     78      -1.0682      2.00001
     79      -1.0255      2.00002
     80      -0.9414      2.00006
     81      -0.9281      2.00007
     82      -0.9064      2.00010
     83      -0.8847      2.00014
     84      -0.8497      2.00023
     85      -0.7502      2.00084
     86      -0.7454      2.00090
     87      -0.7266      2.00113
     88      -0.6769      2.00202
     89      -0.6061      2.00434
     90      -0.5815      2.00557
     91      -0.5720      2.00612
     92      -0.4905      2.01290
     93      -0.4398      2.01944
     94      -0.4225      2.02213
     95      -0.3312      2.04007
     96      -0.2904      2.04944
     97      -0.2677      2.05461
     98      -0.1759      2.07010
     99      -0.1389      2.07042
    100      -0.0847      2.05914
    101       0.1320      1.74933
    102       0.1454      1.71193
    103       0.1583      1.67383
    104       0.2052      1.51978
    105       0.2249      1.44823
    106       0.2593      1.31529
    107       0.2819      1.22380
    108       0.3747      0.83446
    109       0.3994      0.73299
    110       0.4689      0.46842
    111       1.2523     -0.00557
    112       1.5699     -0.00011
    113       1.7655     -0.00001
    114       1.7860     -0.00000
    115       2.2723     -0.00000
    116       2.9688     -0.00000
    117       3.3268     -0.00000
    118       3.5299     -0.00000
    119       3.9567     -0.00000
    120       4.1628     -0.00000
    121       4.6490     -0.00000
    122       4.7416     -0.00000
    123       5.0608     -0.00000
    124       5.4427     -0.00000
    125       5.6205     -0.00000
    126       6.1086     -0.00000
    127       6.8032     -0.00000
    128       7.2579     -0.00000
    129       7.2681     -0.00000
    130       7.4543     -0.00000
    131       7.7716     -0.00000
    132       7.8545     -0.00000
    133       7.9606     -0.00000
    134       7.9816     -0.00000
    135       8.0205     -0.00000
    136       8.1462     -0.00000
    137       8.1756     -0.00000
    138       8.6451     -0.00000
    139       8.9756     -0.00000
    140       8.9955     -0.00000
    141       9.0419     -0.00000
    142       9.0862     -0.00000
    143       9.1458     -0.00000
    144       9.2324     -0.00000


--------------------------------------------------------------------------------------------------------


 soft charge-density along one line, spin component           1
         0         1         2         3         4         5         6         7         8         9
 total charge-density along one line
 
 pseudopotential strength for first ion, spin component:           1
 10.091  13.417   0.000   0.010   0.000  -0.000  -0.034  -0.000
 13.417  17.838   0.000   0.013   0.000  -0.000  -0.045  -0.000
  0.000   0.000  -4.258   0.000  -0.000   8.343  -0.000   0.000
  0.010   0.013   0.000  -4.275   0.000  -0.000   8.366  -0.000
  0.000   0.000  -0.000   0.000  -4.258   0.000  -0.000   8.343
 -0.000  -0.000   8.343  -0.000   0.000 -18.478   0.000  -0.000
 -0.034  -0.045  -0.000   8.366  -0.000   0.000 -18.506   0.000
 -0.000  -0.000   0.000  -0.000   8.343  -0.000   0.000 -18.478
 total augmentation occupancy for first ion, spin component:           1
  7.324  -3.278  -0.000   1.299   0.000   0.000   0.261   0.000
 -3.278   1.689   0.000  -0.911   0.000  -0.000  -0.163   0.000
 -0.000   0.000   1.166   0.000   0.000   0.092   0.000   0.000
  1.299  -0.911   0.000   2.062  -0.000  -0.000   0.229  -0.000
  0.000   0.000   0.000   0.000   1.166   0.000   0.000   0.092
  0.000  -0.000   0.092  -0.000   0.000   0.007  -0.000   0.000
  0.261  -0.163   0.000   0.229   0.000  -0.000   0.030  -0.000
  0.000   0.000   0.000  -0.000   0.092   0.000  -0.000   0.007


------------------------ aborting loop because EDIFF is reached ----------------------------------------


    CHARGE:  cpu time    0.2304: real time    0.2306
    FORLOC:  cpu time    0.0048: real time    0.0047
    FORNL :  cpu time    0.9789: real time    0.9791
    STRESS:  cpu time    2.9277: real time    2.9281
    FORCOR:  cpu time    0.0284: real time    0.0284
    FORHAR:  cpu time    0.0099: real time    0.0099
    MIXING:  cpu time    0.0013: real time    0.0013
    OFIELD:  cpu time    0.0000: real time    0.0000

  FORCE on cell =-STRESS in cart. coord.  units (eV):
  Direction    XX          YY          ZZ          XY          YZ          ZX
  --------------------------------------------------------------------------------------
  Alpha Z   361.59275   361.59275   361.59275
  Ewald  118569.71332118569.71332************     0.00000     0.00000     0.00000
  Hartree122961.30270122961.30270************     0.00000    -0.00000    -0.00000
  E(xc)   -1090.41030 -1090.41042 -1093.81993     0.00010    -0.00000    -0.00000
  Local  ************************247191.56566     0.00165    -0.00015    -0.00025
  n-local   -84.29908  -139.74741  -133.46512   -15.50702    -2.46643     1.29600
  augment  1483.14135  1483.14238  1504.94064    -0.00089     0.00005     0.00008
  Kinetic  2920.42384  2898.81619  2928.25560    -5.80832    -4.19623     2.56651
  Fock        0.00000     0.00000     0.00000     0.00000     0.00000     0.00000
  -------------------------------------------------------------------------------------
  Total     -10.94403   -10.94403    -5.79004     0.00000     0.00000     0.00000
  in kB     -22.41073   -22.41073   -11.85660     0.00000     0.00000     0.00000
  external pressure =      -18.89 kB  Pullay stress =        0.00 kB


 VOLUME and BASIS-vectors are now :
 -----------------------------------------------------------------------------
  energy-cutoff  :      350.00
  volume of cell :      782.41
      direct lattice vectors                 reciprocal lattice vectors
     5.572001436  0.000000000  0.000000000     0.179468726 -0.103616317  0.000000000
     2.786000718  4.825494793  0.000000000     0.000000000  0.207232635  0.000000000
     0.000000000  0.000000000 29.099040242     0.000000000  0.000000000  0.034365395

  length of vectors
     5.572001436  5.572001436 29.099040242     0.207232635  0.207232635  0.034365395


 FORCES acting on ions
    electron-ion (+dipol)            ewald-force                    non-local-force                 convergence-correction
 -----------------------------------------------------------------------------------------------
   -.371E-03 -.214E-03 -.130E+04   0.589E-11 0.345E-11 0.129E+04   -.249E-17 -.108E-18 0.106E+02   0.696E-07 0.402E-07 0.159E-01
   0.249E-03 0.144E-03 -.227E+04   0.109E-12 0.400E-13 0.233E+04   -.142E-17 0.108E-18 -.571E+02   0.535E-07 0.309E-07 -.611E-02
   0.125E-05 0.721E-06 -.300E+04   0.115E-10 0.679E-11 0.299E+04   0.542E-19 -.108E-18 0.277E+01   0.104E-06 0.603E-07 -.946E-01
   0.387E-05 -.102E+03 -.296E+04   -.588E-12 0.101E+03 0.296E+04   -.139E-16 0.566E+00 0.516E+00   -.594E-06 0.188E-01 -.113E+00
   -.881E+02 0.508E+02 -.296E+04   0.876E+02 -.506E+02 0.296E+04   0.490E+00 -.283E+00 0.516E+00   0.163E-01 -.942E-02 -.113E+00
   0.881E+02 0.508E+02 -.296E+04   -.876E+02 -.506E+02 0.296E+04   -.490E+00 -.283E+00 0.516E+00   -.163E-01 -.942E-02 -.113E+00
   -.825E-07 0.120E+01 -.139E+04   0.266E-11 -.133E+01 0.139E+04   -.694E-17 0.106E+00 0.374E+00   -.247E-06 0.656E-02 -.256E+00
   -.637E-06 -.368E-06 -.142E+04   -.825E-11 -.151E-10 0.142E+04   0.401E-17 -.596E-18 -.407E+00   -.485E-07 -.280E-07 -.262E+00
   -.104E+01 -.600E+00 -.139E+04   0.115E+01 0.663E+00 0.139E+04   -.922E-01 -.532E-01 0.374E+00   -.568E-02 -.328E-02 -.256E+00
   0.104E+01 -.600E+00 -.139E+04   -.115E+01 0.663E+00 0.139E+04   0.922E-01 -.532E-01 0.374E+00   0.569E-02 -.328E-02 -.256E+00
   -.430E+01 -.248E+01 0.177E+03   0.425E+01 0.246E+01 -.177E+03   0.611E-01 0.353E-01 0.774E-01   0.284E-01 0.164E-01 -.145E+00
   -.428E-01 0.247E-01 0.334E+04   0.305E-01 -.176E-01 -.333E+04   0.324E-02 -.187E-02 -.254E+01   0.866E-03 -.500E-03 0.374E-01
   -.191E-04 -.110E-04 0.178E+03   0.364E-10 0.209E-10 -.177E+03   0.542E-18 0.434E-18 -.189E+00   0.111E-07 0.644E-08 -.140E+00
   -.760E-06 -.439E-06 0.176E+04   -.846E-12 -.512E-12 -.176E+04   0.423E-17 -.580E-17 0.184E-01   0.175E-08 0.101E-08 -.254E-01
   -.108E-06 0.100E+00 0.176E+04   0.370E-11 -.749E-01 -.176E+04   0.000E+00 -.503E-01 -.337E-02   0.118E-07 0.478E-03 -.218E-01
   0.868E-01 -.501E-01 0.176E+04   -.649E-01 0.375E-01 -.176E+04   -.436E-01 0.252E-01 -.337E-02   0.414E-03 -.239E-03 -.218E-01
   -.868E-01 -.501E-01 0.176E+04   0.649E-01 0.375E-01 -.176E+04   0.436E-01 0.252E-01 -.337E-02   -.414E-03 -.239E-03 -.218E-01
   0.282E-06 -.494E-01 0.334E+04   -.100E-11 0.353E-01 -.333E+04   -.137E-17 0.374E-02 -.254E+01   0.233E-07 0.100E-02 0.374E-01
   0.259E-06 0.150E-06 0.334E+04   -.110E-11 -.654E-12 -.333E+04   0.108E-17 0.434E-18 -.258E+01   -.234E-08 -.135E-08 0.383E-01
   0.428E-01 0.247E-01 0.334E+04   -.305E-01 -.176E-01 -.333E+04   -.324E-02 -.187E-02 -.254E+01   -.866E-03 -.500E-03 0.374E-01
   -.129E-04 0.497E+01 0.177E+03   -.223E-10 -.491E+01 -.177E+03   -.867E-18 -.705E-01 0.774E-01   -.713E-06 -.328E-01 -.145E+00
   0.430E+01 -.248E+01 0.177E+03   -.425E+01 0.246E+01 -.177E+03   -.611E-01 0.353E-01 0.774E-01   -.284E-01 0.164E-01 -.145E+00
 -----------------------------------------------------------------------------------------------
   -.132E-03 -.764E-04 0.535E+02   0.167E-12 0.355E-13 -.625E-12   -.694E-17 -.139E-16 -.515E+02   0.725E-07 0.419E-07 -.197E+01
 
 
 POSITION                                       TOTAL-FORCE (eV/Angst)
 -----------------------------------------------------------------------------------
      1.39300      0.80425     20.49370        -0.000000      0.000000     -0.182845
      1.39300      0.80425     21.68184        -0.000000      0.000000      0.221730
      4.17900      2.41275     19.12032        -0.000000      0.000000     -0.087975
      1.39300      2.41625     19.19963        -0.000000      0.037956     -0.048179
      2.78903     -0.00175     19.19963         0.032871     -0.018978     -0.048179
     -0.00303     -0.00175     19.19963        -0.032871     -0.018978     -0.048179
      4.17900      4.02351     16.84425        -0.000000     -0.012467     -0.031778
      6.96500      4.02125     16.88400        -0.000000      0.000000     -0.030987
      2.78404      1.60737     16.84425         0.010796      0.006233     -0.031778
      5.57396      1.60737     16.84425        -0.010796      0.006233     -0.031778
      5.56990      3.21578     14.55975         0.041032      0.023690     -0.033101
      5.57200      1.60850     10.00000        -0.008154      0.004708     -0.010225
      1.39300      0.80425     14.56601        -0.000000      0.000000     -0.044799
      4.17900      2.41275     12.27476        -0.000000      0.000000      0.049639
      1.39300      2.41275     12.27476         0.000000     -0.024499      0.151637
      2.78600      0.00000     12.27476        -0.021217      0.012250      0.151637
      0.00000      0.00000     12.27476         0.021217      0.012250      0.151637
      4.17900      4.02125     10.00000        -0.000000     -0.009415     -0.010225
      6.96500      4.02125     10.00000        -0.000000      0.000000     -0.009824
      2.78600      1.60850     10.00000         0.008154      0.004708     -0.010225
      4.17900      0.80668     14.55975        -0.000000     -0.047380     -0.033101
      2.78810      3.21578     14.55975        -0.041032      0.023690     -0.033101
 -----------------------------------------------------------------------------------
    total drift:                               -0.000132     -0.000076     -0.011662


--------------------------------------------------------------------------------------------------------



  FREE ENERGIE OF THE ION-ELECTRON SYSTEM (eV)
  ---------------------------------------------------
  free  energy   TOTEN  =      -116.81484470 eV

  energy  without entropy=     -116.41491800  energy(sigma->0) =     -116.68153580
 
 d Force = 0.1769404E-03[-0.430E-05, 0.358E-03]  d Energy = 0.1487425E-03 0.282E-04
 d Force = 0.1922842E+02[ 0.192E+02, 0.192E+02]  d Ewald  = 0.1922842E+02 0.856E-06


--------------------------------------------------------------------------------------------------------


    POTLOK:  cpu time    0.0319: real time    0.0319


--------------------------------------------------------------------------------------------------------




--------------------------------------------------------------------------------------------------------


  
 reached required accuracy - stopping structural energy minimisation
     LOOP+:  cpu time   31.9346: real time   31.9691
    4ORBIT:  cpu time    0.0000: real time    0.0000

 total amount of memory used by VASP MPI-rank0    53704. kBytes
=======================================================================

   base      :      30000. kBytes
   nonlr-proj:       1817. kBytes
   fftplans  :       1501. kBytes
   grid      :       2646. kBytes
   one-center:         46. kBytes
   wavefun   :      17694. kBytes
 
  
  
 General timing and accounting informations for this job:
 ========================================================
  
                  Total CPU time used (sec):     1670.360
                            User time (sec):     1626.728
                          System time (sec):       43.631
                         Elapsed time (sec):     1672.133
  
                   Maximum memory used (kb):      109924.
                   Average memory used (kb):           0.
  
                          Minor page faults:       140496
                          Major page faults:            0
                 Voluntary context switches:         2951
