       N       E                     dE             d eps       ncg     rms          rms(c)
DAV:   1     0.102966542397E+04    0.10297E+04   -0.58321E+04 19288   0.103E+03
DAV:   2    -0.284025365860E+02   -0.10581E+04   -0.98271E+03 23920   0.260E+02
DAV:   3    -0.120512942144E+03   -0.92110E+02   -0.85129E+02 22960   0.761E+01
DAV:   4    -0.124980582488E+03   -0.44676E+01   -0.42498E+01 25732   0.170E+01
DAV:   5    -0.125121389677E+03   -0.14081E+00   -0.13954E+00 26784   0.295E+00    0.431E+01
DAV:   6    -0.118196424094E+03    0.69250E+01   -0.32188E+01 22128   0.219E+01    0.323E+01
DAV:   7    -0.143037531814E+03   -0.24841E+02   -0.11538E+02 22908   0.609E+01    0.443E+01
DAV:   8    -0.125025629155E+03    0.18012E+02   -0.47842E+01 23572   0.354E+01    0.284E+01
DAV:   9    -0.128196892566E+03   -0.31713E+01   -0.71287E+01 28156   0.407E+01    0.282E+01
DAV:  10    -0.121825108534E+03    0.63718E+01   -0.45630E+01 26720   0.378E+01    0.239E+01
DAV:  11    -0.116542111699E+03    0.52830E+01   -0.12843E+01 29000   0.200E+01    0.117E+01
DAV:  12    -0.116405326252E+03    0.13679E+00   -0.70099E+00 27916   0.124E+01    0.107E+01
DAV:  13    -0.115642232699E+03    0.76309E+00   -0.28013E+00 27572   0.741E+00    0.528E+00
DAV:  14    -0.115439932731E+03    0.20230E+00   -0.12921E+00 21968   0.520E+00    0.366E+00
DAV:  15    -0.115436734459E+03    0.31983E-02   -0.11089E-01 22356   0.129E+00    0.309E+00
DAV:  16    -0.115424214391E+03    0.12520E-01   -0.10246E-02 22032   0.451E-01    0.263E+00
DAV:  17    -0.115389348541E+03    0.34866E-01   -0.90280E-02 22380   0.144E+00    0.926E-01
DAV:  18    -0.115383114040E+03    0.62345E-02   -0.38898E-02 21556   0.855E-01    0.500E-01
DAV:  19    -0.115381360259E+03    0.17538E-02   -0.79404E-03 21856   0.369E-01    0.377E-01
DAV:  20    -0.115380822190E+03    0.53807E-03   -0.32853E-03 25856   0.267E-01    0.328E-01
DAV:  21    -0.115380645569E+03    0.17662E-03   -0.15047E-03 24184   0.165E-01    0.254E-01
DAV:  22    -0.115380193034E+03    0.45253E-03   -0.27980E-03 26200   0.204E-01    0.179E-01
DAV:  23    -0.115380047162E+03    0.14587E-03   -0.39388E-04 21544   0.869E-02    0.129E-01
DAV:  24    -0.115379976452E+03    0.70710E-04   -0.43214E-04 19784   0.764E-02    0.502E-02
DAV:  25    -0.115380073695E+03   -0.97243E-04   -0.18006E-04 21476   0.551E-02    0.647E-02
DAV:  26    -0.115380135705E+03   -0.62010E-04   -0.16819E-04 21916   0.506E-02    0.239E-02
DAV:  27    -0.115380295838E+03   -0.16013E-03   -0.11640E-04 20928   0.417E-02    0.309E-02
DAV:  28    -0.115380381584E+03   -0.85746E-04   -0.24346E-05 14352   0.196E-02    0.272E-02
DAV:  29    -0.115380482681E+03   -0.10110E-03   -0.90369E-06 12096   0.132E-02    0.180E-02
DAV:  30    -0.115380614189E+03   -0.13151E-03   -0.17307E-05 13332   0.146E-02    0.117E-02
DAV:  31    -0.115380705629E+03   -0.91440E-04   -0.71550E-06 12452   0.106E-02    0.113E-02
DAV:  32    -0.115380740960E+03   -0.35331E-04   -0.25002E-06 11568   0.609E-03    0.822E-03
DAV:  33    -0.115380792477E+03   -0.51517E-04   -0.22388E-06 12044   0.489E-03    0.616E-03
DAV:  34    -0.115380826968E+03   -0.34491E-04   -0.15716E-06 12072   0.393E-03    0.637E-03
DAV:  35    -0.115380836188E+03   -0.92208E-05   -0.98828E-07 11196   0.330E-03
   1 F= -.11537346E+03 E0= -.11536006E+03  d E =-.401995E-01
