 vasp.5.4.4.18Apr17-6-g9f103f2a35 (build Apr 28 2017 10:53:45) complex          
  
 executed on             LinuxIFC date 2019.07.18  17:23:16
 running on   16 total cores
 distrk:  each k-point on   16 cores,    1 groups
 distr:  one band on NCORES_PER_BAND=   4 cores,    4 groups


--------------------------------------------------------------------------------------------------------


 INCAR:
 POTCAR:    PAW_PBE Au 04Oct2007                  
 POTCAR:    PAW_PBE C 08Apr2002                   
 POTCAR:    PAW_PBE H 15Jun2001                   
 POTCAR:    PAW_PBE Ir 06Sep2000                  
 POTCAR:    PAW_PBE Pt 04Feb2005                  
 POTCAR:    PAW_PBE Au 04Oct2007                  
   VRHFIN =Au: s1d10                                                            
   LEXCH  = PE                                                                  
   EATOM  =   926.0867 eV,   68.0654 Ry                                         
                                                                                
   TITEL  = PAW_PBE Au 04Oct2007                                                
   LULTRA =        F    use ultrasoft PP ?                                      
   IUNSCR =        1    unscreen: 0-lin 1-nonlin 2-no                           
   RPACOR =    2.330    partial core radius                                     
   POMASS =  196.966; ZVAL   =   11.000    mass and valenz                      
   RCORE  =    2.500    outmost cutoff radius                                   
   RWIGS  =    2.840; RWIGS  =    1.503    wigner-seitz radius (au A)           
   ENMAX  =  229.943; ENMIN  =  172.457 eV                                      
   ICORE  =        3    local potential                                         
   LCOR   =        T    correct aug charges                                     
   LPAW   =        T    paw PP                                                  
   EAUG   =  356.670                                                            
   DEXC   =    0.000                                                            
   RMAX   =    2.562    core radius for proj-oper                               
   RAUG   =    1.300    factor for augmentation sphere                          
   RDEP   =    2.598    radius for radial grids                                 
   RDEPT  =    2.193    core radius for aug-charge                              
                                                                                
   Atomic configuration                                                         
   16 entries                                                                   
     n  l   j            E        occ.                                          
     1  0  0.50    -80748.5001   2.0000                                         
     2  0  0.50    -14244.7466   2.0000                                         
     2  1  1.50    -12310.9591   6.0000                                         
     3  0  0.50     -3362.1768   2.0000                                         
     3  1  1.50     -2801.5463   6.0000                                         
     3  2  2.50     -2203.8206  10.0000                                         
     4  0  0.50      -729.8168   2.0000                                         
     4  1  1.50      -546.0527   6.0000                                         
     4  2  2.50      -325.7302  10.0000                                         
     4  3  3.50       -81.1472  14.0000                                         
     5  0  0.50      -108.3201   2.0000                                         
     5  1  1.50       -59.7479   6.0000                                         
     5  2  2.50        -6.8783  10.0000                                         
     6  0  0.50        -5.7602   1.0000                                         
     6  1  1.50        -6.8029   0.0000                                         
     5  3  2.50        -1.3606   0.0000                                         
   Description                                                                  
     l       E           TYP  RCUT    TYP  RCUT                                 
     2     -6.8782861     23  2.500                                             
     2     -8.2388687     23  2.500                                             
     0     -5.7601759     23  2.500                                             
     0     -0.8493231     23  2.500                                             
     1     -2.7211652     23  2.500                                             
     1     27.2116520     23  2.500                                             
     3     -1.3605826     23  2.500                                             
  local pseudopotential read in
  partial core-charges read in
  partial kinetic energy density read in
  atomic valenz-charges read in
  non local Contribution for L=           2  read in
    real space projection operators read in
  non local Contribution for L=           2  read in
    real space projection operators read in
  non local Contribution for L=           0  read in
    real space projection operators read in
  non local Contribution for L=           0  read in
    real space projection operators read in
  non local Contribution for L=           1  read in
    real space projection operators read in
  non local Contribution for L=           1  read in
    real space projection operators read in
    PAW grid and wavefunctions read in
 
   number of l-projection  operators is LMAX  =           6
   number of lm-projection operators is LMMAX =          18
 
 POTCAR:    PAW_PBE C 08Apr2002                   
   VRHFIN =C: s2p2                                                              
   LEXCH  = PE                                                                  
   EATOM  =   147.1560 eV,   10.8157 Ry                                         
                                                                                
   TITEL  = PAW_PBE C 08Apr2002                                                 
   LULTRA =        F    use ultrasoft PP ?                                      
   IUNSCR =        1    unscreen: 0-lin 1-nonlin 2-no                           
   RPACOR =    1.200    partial core radius                                     
   POMASS =   12.011; ZVAL   =    4.000    mass and valenz                      
   RCORE  =    1.500    outmost cutoff radius                                   
   RWIGS  =    1.630; RWIGS  =    0.863    wigner-seitz radius (au A)           
   ENMAX  =  400.000; ENMIN  =  300.000 eV                                      
   ICORE  =        2    local potential                                         
   LCOR   =        T    correct aug charges                                     
   LPAW   =        T    paw PP                                                  
   EAUG   =  644.873                                                            
   DEXC   =    0.000                                                            
   RMAX   =    1.529    core radius for proj-oper                               
   RAUG   =    1.300    factor for augmentation sphere                          
   RDEP   =    1.501    radius for radial grids                                 
   RDEPT  =    1.300    core radius for aug-charge                              
                                                                                
   Atomic configuration                                                         
    4 entries                                                                   
     n  l   j            E        occ.                                          
     1  0  0.50      -273.3789   2.0000                                         
     2  0  0.50       -13.7508   2.0000                                         
     2  1  0.50        -5.2854   2.0000                                         
     3  2  1.50        -5.4423   0.0000                                         
   Description                                                                  
     l       E           TYP  RCUT    TYP  RCUT                                 
     0    -13.7508458     23  1.200                                             
     0     -8.2022199     23  1.200                                             
     1     -5.2854383     23  1.500                                             
     1     34.0145650     23  1.500                                             
     2     -5.4423304      7  1.500                                             
  local pseudopotential read in
  partial core-charges read in
  partial kinetic energy density read in
  atomic valenz-charges read in
  non local Contribution for L=           0  read in
    real space projection operators read in
  non local Contribution for L=           0  read in
    real space projection operators read in
  non local Contribution for L=           1  read in
    real space projection operators read in
  non local Contribution for L=           1  read in
    real space projection operators read in
    PAW grid and wavefunctions read in
 
   number of l-projection  operators is LMAX  =           4
   number of lm-projection operators is LMMAX =           8
 
 POTCAR:    PAW_PBE H 15Jun2001                   
   VRHFIN =H: ultrasoft test                                                    
   LEXCH  = PE                                                                  
   EATOM  =    12.4884 eV,    0.9179 Ry                                         
                                                                                
   TITEL  = PAW_PBE H 15Jun2001                                                 
   LULTRA =        F    use ultrasoft PP ?                                      
   IUNSCR =        0    unscreen: 0-lin 1-nonlin 2-no                           
   RPACOR =    0.000    partial core radius                                     
   POMASS =    1.000; ZVAL   =    1.000    mass and valenz                      
   RCORE  =    1.100    outmost cutoff radius                                   
   RWIGS  =    0.700; RWIGS  =    0.370    wigner-seitz radius (au A)           
   ENMAX  =  250.000; ENMIN  =  200.000 eV                                      
   RCLOC  =    0.701    cutoff for local pot                                    
   LCOR   =        T    correct aug charges                                     
   LPAW   =        T    paw PP                                                  
   EAUG   =  400.000                                                            
   RMAX   =    1.123    core radius for proj-oper                               
   RAUG   =    1.200    factor for augmentation sphere                          
   RDEP   =    1.112    radius for radial grids                                 
   RDEPT  =    0.926    core radius for aug-charge                              
                                                                                
   Atomic configuration                                                         
    2 entries                                                                   
     n  l   j            E        occ.                                          
     1  0  0.50        -6.4927   1.0000                                         
     2  1  0.50        -3.4015   0.0000                                         
   Description                                                                  
     l       E           TYP  RCUT    TYP  RCUT                                 
     0     -6.4927494     23  1.100                                             
     0      6.8029130     23  1.100                                             
     1     -4.0817478     23  1.100                                             
  local pseudopotential read in
  atomic valenz-charges read in
  non local Contribution for L=           0  read in
    real space projection operators read in
  non local Contribution for L=           0  read in
    real space projection operators read in
  non local Contribution for L=           1  read in
    real space projection operators read in
    PAW grid and wavefunctions read in
 
   number of l-projection  operators is LMAX  =           3
   number of lm-projection operators is LMMAX =           5
 
 POTCAR:    PAW_PBE Ir 06Sep2000                  
   VRHFIN =Ir: s1d8                                                             
   LEXCH  = PE                                                                  
   EATOM  =   560.1833 eV,   41.1723 Ry                                         
                                                                                
   TITEL  = PAW_PBE Ir 06Sep2000                                                
   LULTRA =        F    use ultrasoft PP ?                                      
   IUNSCR =        1    unscreen: 0-lin 1-nonlin 2-no                           
   RPACOR =    2.250    partial core radius                                     
   POMASS =  192.220; ZVAL   =    9.000    mass and valenz                      
   RCORE  =    2.600    outmost cutoff radius                                   
   RWIGS  =    2.690; RWIGS  =    1.423    wigner-seitz radius (au A)           
   ENMAX  =  210.864; ENMIN  =  158.148 eV                                      
   RCLOC  =    1.857    cutoff for local pot                                    
   LCOR   =        T    correct aug charges                                     
   LPAW   =        T    paw PP                                                  
   EAUG   =  318.962                                                            
   DEXC   =    0.000                                                            
   RMAX   =    2.667    core radius for proj-oper                               
   RAUG   =    1.300    factor for augmentation sphere                          
   RDEP   =    2.748    radius for radial grids                                 
   RDEPT  =    2.300    core radius for aug-charge                              
                                                                                
   Atomic configuration                                                         
   16 entries                                                                   
     n  l   j            E        occ.                                          
     1  0  0.50    -76100.0449   2.0000                                         
     2  0  0.50    -13308.1683   2.0000                                         
     2  1  1.50    -11558.0021   6.0000                                         
     3  0  0.50     -3110.7274   2.0000                                         
     3  1  1.50     -2599.2109   6.0000                                         
     3  2  2.50     -2037.1515  10.0000                                         
     4  0  0.50      -661.6001   2.0000                                         
     4  1  1.50      -493.8981   6.0000                                         
     4  2  2.50      -288.1909  10.0000                                         
     4  3  3.50       -59.5718  14.0000                                         
     5  0  0.50       -95.3879   2.0000                                         
     5  1  1.50       -52.2747   6.0000                                         
     5  2  2.50        -5.4180   8.0000                                         
     6  0  0.50        -5.5479   1.0000                                         
     6  1  1.50        -6.8029   0.0000                                         
     5  3  2.50        -1.3606   0.0000                                         
   Description                                                                  
     l       E           TYP  RCUT    TYP  RCUT                                 
     2     -5.4179967     23  2.600                                             
     2     -6.7785793     23  2.600                                             
     0     -5.5478636     23  2.600                                             
     0      2.2542272     23  2.600                                             
     1     -2.7211652     23  2.600                                             
     1     20.4087390     23  2.600                                             
  local pseudopotential read in
  partial core-charges read in
  partial kinetic energy density read in
  atomic valenz-charges read in
  non local Contribution for L=           2  read in
    real space projection operators read in
  non local Contribution for L=           2  read in
    real space projection operators read in
  non local Contribution for L=           0  read in
    real space projection operators read in
  non local Contribution for L=           0  read in
    real space projection operators read in
  non local Contribution for L=           1  read in
    real space projection operators read in
  non local Contribution for L=           1  read in
    real space projection operators read in
    PAW grid and wavefunctions read in
 
   number of l-projection  operators is LMAX  =           6
   number of lm-projection operators is LMMAX =          18
 
 POTCAR:    PAW_PBE Pt 04Feb2005                  
   VRHFIN =Pt: s1d9                                                             
   LEXCH  = PE                                                                  
   EATOM  =   729.1176 eV,   53.5886 Ry                                         
                                                                                
   TITEL  = PAW_PBE Pt 04Feb2005                                                
   LULTRA =        F    use ultrasoft PP ?                                      
   IUNSCR =        1    unscreen: 0-lin 1-nonlin 2-no                           
   RPACOR =    2.330    partial core radius                                     
   POMASS =  195.080; ZVAL   =   10.000    mass and valenz                      
   RCORE  =    2.600    outmost cutoff radius                                   
   RWIGS  =    2.750; RWIGS  =    1.455    wigner-seitz radius (au A)           
   ENMAX  =  230.283; ENMIN  =  172.712 eV                                      
   ICORE  =        3    local potential                                         
   LCOR   =        T    correct aug charges                                     
   LPAW   =        T    paw PP                                                  
   EAUG   =  358.966                                                            
   DEXC   =    0.000                                                            
   RMAX   =    2.658    core radius for proj-oper                               
   RAUG   =    1.300    factor for augmentation sphere                          
   RDEP   =    2.761    radius for radial grids                                 
   RDEPT  =    2.203    core radius for aug-charge                              
                                                                                
   Atomic configuration                                                         
   16 entries                                                                   
     n  l   j            E        occ.                                          
     1  0  0.50    -78401.1885   2.0000                                         
     2  0  0.50    -13770.7750   2.0000                                         
     2  1  1.50    -11931.0468   6.0000                                         
     3  0  0.50     -3234.7234   2.0000                                         
     3  1  1.50     -2699.2216   6.0000                                         
     3  2  2.50     -2119.5714  10.0000                                         
     4  0  0.50      -695.1528   2.0000                                         
     4  1  1.50      -519.6034   6.0000                                         
     4  2  2.50      -306.6786  10.0000                                         
     4  3  3.50       -70.1041  14.0000                                         
     5  0  0.50      -101.7747   2.0000                                         
     5  1  1.50       -55.9873   6.0000                                         
     5  2  2.50        -6.1423   9.0000                                         
     6  0  0.50        -5.6573   1.0000                                         
     6  1  1.50        -6.8029   0.0000                                         
     5  3  2.50        -1.3606   0.0000                                         
   Description                                                                  
     l       E           TYP  RCUT    TYP  RCUT                                 
     2     -6.1423404     23  2.500                                             
     2     -7.5029230     23  2.500                                             
     0     -5.6573207     23  2.500                                             
     0      0.7416693     23  2.500                                             
     1     -2.7211652     23  2.600                                             
     1     20.4087390     23  2.600                                             
     3     -1.3605826     23  2.500                                             
  local pseudopotential read in
  partial core-charges read in
  partial kinetic energy density read in
  atomic valenz-charges read in
  non local Contribution for L=           2  read in
    real space projection operators read in
  non local Contribution for L=           2  read in
    real space projection operators read in
  non local Contribution for L=           0  read in
    real space projection operators read in
  non local Contribution for L=           0  read in
    real space projection operators read in
  non local Contribution for L=           1  read in
    real space projection operators read in
  non local Contribution for L=           1  read in
    real space projection operators read in
    PAW grid and wavefunctions read in
 
   number of l-projection  operators is LMAX  =           6
   number of lm-projection operators is LMMAX =          18
 
 Optimization of the real space projectors (new method)

 maximal supplied QI-value         = 15.12
 optimisation between [QCUT,QGAM] = [  9.52, 19.05] = [ 25.40,101.61] Ry 
 Optimized for a Real-space Cutoff    1.57 Angstroem

   l    n(q)    QCUT    max X(q) W(low)/X(q) W(high)/X(q)  e(spline) 
   2      8     9.524    60.898    0.38E-03    0.43E-04    0.84E-07
   2      8     9.524    58.894    0.38E-03    0.47E-04    0.88E-07
   0      9     9.524   109.617    0.60E-04    0.64E-04    0.80E-07
   0      9     9.524    75.026    0.59E-04    0.62E-04    0.78E-07
   1      8     9.524    16.344    0.99E-04    0.18E-03    0.87E-07
   1      8     9.524    10.160    0.78E-04    0.15E-03    0.74E-07
 Optimization of the real space projectors (new method)

 maximal supplied QI-value         = 25.13
 optimisation between [QCUT,QGAM] = [  9.55, 19.10] = [ 25.54,102.17] Ry 
 Optimized for a Real-space Cutoff    1.39 Angstroem

   l    n(q)    QCUT    max X(q) W(low)/X(q) W(high)/X(q)  e(spline) 
   0      8     9.551   115.676    0.39E-03    0.54E-03    0.29E-06
   0      8     9.551    87.132    0.39E-03    0.54E-03    0.28E-06
   1      7     9.551     4.429    0.35E-03    0.51E-04    0.29E-06
   1      7     9.551     2.733    0.22E-03    0.42E-04    0.31E-06
 Optimization of the real space projectors (new method)

 maximal supplied QI-value         = 34.20
 optimisation between [QCUT,QGAM] = [  9.58, 19.15] = [ 25.68,102.74] Ry 
 Optimized for a Real-space Cutoff    1.31 Angstroem

   l    n(q)    QCUT    max X(q) W(low)/X(q) W(high)/X(q)  e(spline) 
   0      7     9.577    19.460    0.33E-03    0.12E-03    0.35E-06
   0      7     9.577    12.209    0.33E-03    0.11E-03    0.33E-06
   1      7     9.577     4.655    0.39E-03    0.14E-02    0.33E-06
 Optimization of the real space projectors (new method)

 maximal supplied QI-value         = 14.36
 optimisation between [QCUT,QGAM] = [  9.48, 19.10] = [ 25.16,102.17] Ry 
 Optimized for a Real-space Cutoff    1.57 Angstroem

   l    n(q)    QCUT    max X(q) W(low)/X(q) W(high)/X(q)  e(spline) 
   2      8     9.479   134.116    0.18E-03    0.75E-03    0.26E-06
   2      8     9.479   130.192    0.18E-03    0.75E-03    0.27E-06
   0      9     9.479    60.310    0.39E-03    0.24E-03    0.63E-07
   0      9     9.479    39.218    0.36E-03    0.22E-03    0.59E-07
   1      8     9.479    18.439    0.20E-03    0.15E-03    0.16E-06
   1      8     9.479    12.760    0.16E-03    0.11E-03    0.13E-06
 Optimization of the real space projectors (new method)

 maximal supplied QI-value         = 14.36
 optimisation between [QCUT,QGAM] = [  9.48, 19.10] = [ 25.16,102.17] Ry 
 Optimized for a Real-space Cutoff    1.57 Angstroem

   l    n(q)    QCUT    max X(q) W(low)/X(q) W(high)/X(q)  e(spline) 
   2      8     9.479    66.195    0.35E-03    0.53E-04    0.87E-07
   2      8     9.479    64.643    0.35E-03    0.57E-04    0.91E-07
   0      9     9.479    95.520    0.50E-04    0.62E-04    0.81E-07
   0      9     9.479    63.403    0.49E-04    0.60E-04    0.78E-07
   1      8     9.479    19.961    0.10E-03    0.87E-04    0.11E-06
   1      8     9.479    13.289    0.88E-04    0.71E-04    0.97E-07
  PAW_PBE Au 04Oct2007                  :
 energy of atom  1       EATOM= -926.0867
 kinetic energy error for atom=    0.0152 (will be added to EATOM!!)
  PAW_PBE C 08Apr2002                   :
 energy of atom  2       EATOM= -147.1560
 kinetic energy error for atom=    0.0854 (will be added to EATOM!!)
  PAW_PBE H 15Jun2001                   :
 energy of atom  3       EATOM=  -12.4884
 kinetic energy error for atom=    0.0203 (will be added to EATOM!!)
  PAW_PBE Ir 06Sep2000                  :
 energy of atom  4       EATOM= -560.1833
 kinetic energy error for atom=    0.0056 (will be added to EATOM!!)
  PAW_PBE Pt 04Feb2005                  :
 energy of atom  5       EATOM= -729.1176
 kinetic energy error for atom=    0.0144 (will be added to EATOM!!)
 
 
 POSCAR: Au  C  H Ir Pt                          
  positions in cartesian coordinates
  No initial velocities read in
 exchange correlation table for  LEXCH =        8
   RHO(1)=    0.500       N(1)  =     2000
   RHO(2)=  100.500       N(2)  =     4000
 


--------------------------------------------------------------------------------------------------------


 ion  position               nearest neighbor table
   1  0.004  0.994  0.618-   3 1.96   2 2.68   9 2.76  10 2.77   8 2.77   8 2.79  21 2.79  10 2.79
                             9 2.79  11 2.83  13 2.85
   2  0.004  0.038  0.705-   6 1.10   4 1.10   5 1.10   3 1.15   1 2.68
   3  0.014  0.153  0.674-   2 1.15   1 1.96
   4  0.879  0.215  0.726-   2 1.10
   5  0.902  0.914  0.701-   2 1.10
   6  0.219  0.908  0.716-   2 1.10
   7  0.502  0.003  0.393-  18 2.78  19 2.78  12 2.78  12 2.78  19 2.78  18 2.78  17 2.81  16 2.82
                            14 2.82
   8  0.504  0.497  0.618-   9 2.77   1 2.77  10 2.78  10 2.78   1 2.79   9 2.79  20 2.79  13 2.82
                            11 2.82
   9  0.006  0.496  0.618-   1 2.76   8 2.77  10 2.78  10 2.78   8 2.79   1 2.79  13 2.81  20 2.82
                            21 2.83
  10  0.506  0.996  0.618-   1 2.77   9 2.78   8 2.78   8 2.78   9 2.78   1 2.79  11 2.80  21 2.81
                            20 2.82
  11  0.339  0.834  0.543-  21 2.77  20 2.77  13 2.78  13 2.78  20 2.78  14 2.78  15 2.79  21 2.79
                            17 2.80  10 2.80   8 2.82   1 2.83
  12  0.002  0.003  0.393-   7 2.78  19 2.78  18 2.78  18 2.78  19 2.78   7 2.78  16 2.82  15 2.82
                            17 2.83
  13  0.839  0.334  0.543-  21 2.77  20 2.78  11 2.78  11 2.78  20 2.78  21 2.78  17 2.78  16 2.79
                            14 2.79   9 2.81   8 2.82   1 2.85
  14  0.671  0.670  0.469-  16 2.78  15 2.78  17 2.78  17 2.78  15 2.78  16 2.78  11 2.78  13 2.79
                            21 2.80  19 2.82   7 2.82  18 2.84
  15  0.171  0.669  0.469-  14 2.78  16 2.78  17 2.78  17 2.78  16 2.78  14 2.78  11 2.79  21 2.79
                            20 2.81  18 2.82  12 2.82  19 2.83
  16  0.671  0.170  0.468-  14 2.78  17 2.78  15 2.78  15 2.78  17 2.78  14 2.78  13 2.79  20 2.79
                            21 2.81  12 2.82   7 2.82  18 2.82
  17  0.171  0.169  0.469-  16 2.78  14 2.78  15 2.78  15 2.78  14 2.78  16 2.78  13 2.78  20 2.79
                            11 2.80   7 2.81  19 2.82  12 2.83
  18  0.502  0.503  0.393-   7 2.78  19 2.78  12 2.78  12 2.78  19 2.78   7 2.78  15 2.82  16 2.82
                            14 2.84
  19  0.002  0.503  0.393-   7 2.78  18 2.78  12 2.78  12 2.78  18 2.78   7 2.78  14 2.82  17 2.82
                            15 2.83
  20  0.340  0.333  0.543-  11 2.77  13 2.78  21 2.78  21 2.78  13 2.78  11 2.78   8 2.79  17 2.79
                            16 2.79  15 2.81   9 2.82  10 2.82
  21  0.841  0.834  0.543-  11 2.77  13 2.77  20 2.78  20 2.78  13 2.78  11 2.79   1 2.79  15 2.79
                            14 2.80  16 2.81  10 2.81   9 2.83
 
  LATTYP: Found a hexagonal cell.
 ALAT       =     5.5578593001
 C/A-ratio  =     5.5429542221
  
  Lattice vectors:
  
 A1 = (   2.7789296501,  -4.8132473446,   0.0000000000)
 A2 = (  -5.5578593001,   0.0000000000,   0.0000000000)
 A3 = (   0.0000000000,   0.0000000000, -30.8069596737)


Analysis of symmetry for initial positions (statically):
=====================================================================
 Subroutine PRICEL returns:
 Original cell was already a primitive cell.
 

 Routine SETGRP: Setting up the symmetry group for a 
 hexagonal supercell.


 Subroutine GETGRP returns: Found  1 space group operations
 (whereof  1 operations were pure point group operations)
 out of a pool of 24 trial point group operations.


The static configuration has the point symmetry C_1 .


Analysis of symmetry for dynamics (positions and initial velocities):
=====================================================================
 Subroutine PRICEL returns:
 Original cell was already a primitive cell.
 

 Routine SETGRP: Setting up the symmetry group for a 
 hexagonal supercell.


 Subroutine GETGRP returns: Found  1 space group operations
 (whereof  1 operations were pure point group operations)
 out of a pool of 24 trial point group operations.


The dynamic configuration has the point symmetry C_1 .


 Subroutine INISYM returns: Found  1 space group operations
 (whereof  1 operations are pure point group operations),
 and found     1 'primitive' translations

 
 
 KPOINTS: 0.1.Ir1.Au12                            

Automatic generation of k-mesh.
Space group operators:
 irot       det(A)        alpha          n_x          n_y          n_z        tau_x        tau_y        tau_z
    1     1.000000     0.000001     1.000000     0.000000     0.000000     0.000000     0.000000     0.000000
 
 Subroutine IBZKPT returns following result:
 ===========================================
 
 Found     96 irreducible k-points:
 
 Following reciprocal coordinates:
            Coordinates               Weight
  0.062500  0.062500  0.000000     16.000000
  0.000000  0.062500  0.000000     16.000000
 -0.062500  0.000000  0.000000     16.000000
  0.187500  0.062500  0.000000     16.000000
  0.125000  0.187500  0.000000     16.000000
 -0.062500  0.125000  0.000000     16.000000
  0.125000 -0.062500  0.000000     16.000000
 -0.062500 -0.187500  0.000000     16.000000
 -0.187500 -0.125000  0.000000     16.000000
  0.312500  0.062500  0.000000     16.000000
  0.250000  0.312500  0.000000     16.000000
 -0.062500  0.250000  0.000000     16.000000
  0.250000 -0.062500  0.000000     16.000000
 -0.062500 -0.312500  0.000000     16.000000
 -0.312500 -0.250000  0.000000     16.000000
  0.437500  0.062500  0.000000     16.000000
  0.375000  0.437500  0.000000     16.000000
 -0.062500  0.375000  0.000000     16.000000
  0.375000 -0.062500  0.000000     16.000000
 -0.062500 -0.437500  0.000000     16.000000
 -0.437500 -0.375000  0.000000     16.000000
 -0.437500  0.062500  0.000000     16.000000
  0.500000 -0.437500  0.000000     16.000000
 -0.062500  0.500000  0.000000     16.000000
  0.500000 -0.062500  0.000000     16.000000
 -0.062500  0.437500  0.000000     16.000000
  0.437500  0.500000  0.000000     16.000000
 -0.312500  0.062500  0.000000     16.000000
 -0.375000 -0.312500  0.000000     16.000000
 -0.062500 -0.375000  0.000000     16.000000
 -0.375000 -0.062500  0.000000     16.000000
 -0.062500  0.312500  0.000000     16.000000
  0.312500  0.375000  0.000000     16.000000
 -0.187500  0.062500  0.000000     16.000000
 -0.250000 -0.187500  0.000000     16.000000
 -0.062500 -0.250000  0.000000     16.000000
 -0.250000 -0.062500  0.000000     16.000000
 -0.062500  0.187500  0.000000     16.000000
  0.187500  0.250000  0.000000     16.000000
 -0.062500  0.062500  0.000000     16.000000
 -0.125000 -0.062500  0.000000     16.000000
 -0.062500 -0.125000  0.000000     16.000000
  0.187500  0.187500  0.000000     16.000000
  0.000000  0.187500  0.000000     16.000000
 -0.187500  0.000000  0.000000     16.000000
  0.312500  0.187500  0.000000     16.000000
  0.125000  0.312500  0.000000     16.000000
 -0.187500  0.125000  0.000000     16.000000
  0.125000 -0.187500  0.000000     16.000000
 -0.187500 -0.312500  0.000000     16.000000
 -0.312500 -0.125000  0.000000     16.000000
  0.437500  0.187500  0.000000     16.000000
  0.250000  0.437500  0.000000     16.000000
 -0.187500  0.250000  0.000000     16.000000
  0.250000 -0.187500  0.000000     16.000000
 -0.187500 -0.437500  0.000000     16.000000
 -0.437500 -0.250000  0.000000     16.000000
 -0.437500  0.187500  0.000000     16.000000
  0.375000 -0.437500  0.000000     16.000000
 -0.187500  0.375000  0.000000     16.000000
  0.375000 -0.187500  0.000000     16.000000
 -0.187500  0.437500  0.000000     16.000000
  0.437500 -0.375000  0.000000     16.000000
 -0.312500  0.187500  0.000000     16.000000
  0.500000 -0.312500  0.000000     16.000000
 -0.187500  0.500000  0.000000     16.000000
  0.500000 -0.187500  0.000000     16.000000
 -0.187500  0.312500  0.000000     16.000000
  0.312500  0.500000  0.000000     16.000000
 -0.187500  0.187500  0.000000     16.000000
 -0.375000 -0.187500  0.000000     16.000000
 -0.187500 -0.375000  0.000000     16.000000
  0.312500  0.312500  0.000000     16.000000
  0.000000  0.312500  0.000000     16.000000
 -0.312500  0.000000  0.000000     16.000000
  0.437500  0.312500  0.000000     16.000000
  0.125000  0.437500  0.000000     16.000000
 -0.312500  0.125000  0.000000     16.000000
  0.125000 -0.312500  0.000000     16.000000
 -0.312500 -0.437500  0.000000     16.000000
 -0.437500 -0.125000  0.000000     16.000000
 -0.437500  0.312500  0.000000     16.000000
  0.250000 -0.437500  0.000000     16.000000
 -0.312500  0.250000  0.000000     16.000000
  0.250000 -0.312500  0.000000     16.000000
 -0.312500  0.437500  0.000000     16.000000
  0.437500 -0.250000  0.000000     16.000000
 -0.312500  0.312500  0.000000     16.000000
  0.375000 -0.312500  0.000000     16.000000
 -0.312500  0.375000  0.000000     16.000000
  0.437500  0.437500  0.000000     16.000000
  0.000000  0.437500  0.000000     16.000000
 -0.437500 -0.000000  0.000000     16.000000
 -0.437500  0.437500  0.000000     16.000000
  0.125000 -0.437500  0.000000     16.000000
 -0.437500  0.125000  0.000000     16.000000
 
 Following cartesian coordinates:
            Coordinates               Weight
  0.011245  0.006492  0.000000     16.000000
  0.000000  0.012985  0.000000     16.000000
 -0.011245  0.006492  0.000000     16.000000
  0.033736 -0.006492  0.000000     16.000000
  0.022491  0.025970  0.000000     16.000000
 -0.011245  0.032462  0.000000     16.000000
  0.022491 -0.025970  0.000000     16.000000
 -0.011245 -0.032462  0.000000     16.000000
 -0.033736 -0.006492  0.000000     16.000000
  0.056227 -0.019477  0.000000     16.000000
  0.044981  0.038955  0.000000     16.000000
 -0.011245  0.058432  0.000000     16.000000
  0.044981 -0.038955  0.000000     16.000000
 -0.011245 -0.058432  0.000000     16.000000
 -0.056227 -0.019477  0.000000     16.000000
  0.078717 -0.032462  0.000000     16.000000
  0.067472  0.051940  0.000000     16.000000
 -0.011245  0.084402  0.000000     16.000000
  0.067472 -0.051940  0.000000     16.000000
 -0.011245 -0.084402  0.000000     16.000000
 -0.078717 -0.032462  0.000000     16.000000
 -0.078717  0.058432  0.000000     16.000000
  0.089963 -0.142835  0.000000     16.000000
 -0.011245  0.110372  0.000000     16.000000
  0.089963 -0.064925  0.000000     16.000000
 -0.011245  0.097387  0.000000     16.000000
  0.078717  0.058432  0.000000     16.000000
 -0.056227  0.045447  0.000000     16.000000
 -0.067472 -0.025970  0.000000     16.000000
 -0.011245 -0.071417  0.000000     16.000000
 -0.067472  0.025970  0.000000     16.000000
 -0.011245  0.071417  0.000000     16.000000
  0.056227  0.045447  0.000000     16.000000
 -0.033736  0.032462  0.000000     16.000000
 -0.044981 -0.012985  0.000000     16.000000
 -0.011245 -0.045447  0.000000     16.000000
 -0.044981  0.012985  0.000000     16.000000
 -0.011245  0.045447  0.000000     16.000000
  0.033736  0.032462  0.000000     16.000000
 -0.011245  0.019477  0.000000     16.000000
 -0.022491  0.000000  0.000000     16.000000
 -0.011245 -0.019477  0.000000     16.000000
  0.033736  0.019477  0.000000     16.000000
  0.000000  0.038955  0.000000     16.000000
 -0.033736  0.019477  0.000000     16.000000
  0.056227  0.006492  0.000000     16.000000
  0.022491  0.051940  0.000000     16.000000
 -0.033736  0.045447  0.000000     16.000000
  0.022491 -0.051940  0.000000     16.000000
 -0.033736 -0.045447  0.000000     16.000000
 -0.056227  0.006492  0.000000     16.000000
  0.078717 -0.006492  0.000000     16.000000
  0.044981  0.064925  0.000000     16.000000
 -0.033736  0.071417  0.000000     16.000000
  0.044981 -0.064925  0.000000     16.000000
 -0.033736 -0.071417  0.000000     16.000000
 -0.078717 -0.006492  0.000000     16.000000
 -0.078717  0.084402  0.000000     16.000000
  0.067472 -0.129850  0.000000     16.000000
 -0.033736  0.097387  0.000000     16.000000
  0.067472 -0.077910  0.000000     16.000000
 -0.033736  0.110372  0.000000     16.000000
  0.078717 -0.123357  0.000000     16.000000
 -0.056227  0.071417  0.000000     16.000000
  0.089963 -0.116865  0.000000     16.000000
 -0.033736  0.123357  0.000000     16.000000
  0.089963 -0.090895  0.000000     16.000000
 -0.033736  0.084402  0.000000     16.000000
  0.056227  0.071417  0.000000     16.000000
 -0.033736  0.058432  0.000000     16.000000
 -0.067472  0.000000  0.000000     16.000000
 -0.033736 -0.058432  0.000000     16.000000
  0.056227  0.032462  0.000000     16.000000
  0.000000  0.064925  0.000000     16.000000
 -0.056227  0.032462  0.000000     16.000000
  0.078717  0.019477  0.000000     16.000000
  0.022491  0.077910  0.000000     16.000000
 -0.056227  0.058432  0.000000     16.000000
  0.022491 -0.077910  0.000000     16.000000
 -0.056227 -0.058432  0.000000     16.000000
 -0.078717  0.019477  0.000000     16.000000
 -0.078717  0.110372  0.000000     16.000000
  0.044981 -0.116865  0.000000     16.000000
 -0.056227  0.084402  0.000000     16.000000
  0.044981 -0.090895  0.000000     16.000000
 -0.056227  0.123357  0.000000     16.000000
  0.078717 -0.097387  0.000000     16.000000
 -0.056227  0.097387  0.000000     16.000000
  0.067472 -0.103880  0.000000     16.000000
 -0.056227  0.110372  0.000000     16.000000
  0.078717  0.045447  0.000000     16.000000
  0.000000  0.090895  0.000000     16.000000
 -0.078717  0.045447  0.000000     16.000000
 -0.078717  0.136342  0.000000     16.000000
  0.022491 -0.103880  0.000000     16.000000
 -0.078717  0.071417  0.000000     16.000000
 


--------------------------------------------------------------------------------------------------------




 Dimension of arrays:
   k-points           NKPTS =     96   k-points in BZ     NKDIM =     96   number of bands    NBANDS=    100
   number of dos      NEDOS =    301   number of ions     NIONS =     21
   non local maximal  LDIM  =      6   non local SUM 2l+1 LMDIM =     18
   total plane-waves  NPLWV = 112896
   max r-space proj   IRMAX =   2252   max aug-charges    IRDMAX=  10104
   dimension x,y,z NGX =    28 NGY =   28 NGZ =  144
   dimension x,y,z NGXF=    56 NGYF=   56 NGZF=  288
   support grid    NGXF=    56 NGYF=   56 NGZF=  288
   ions per type =               1   1   4   1  14
   NGX,Y,Z   is equivalent  to a cutoff of   8.38,  8.38,  7.77 a.u.
   NGXF,Y,Z  is equivalent  to a cutoff of  16.75, 16.75, 15.54 a.u.

 SYSTEM =  0.1.Ir1.Au12                            
 POSCAR =  Au  C  H Ir Pt                          

 Startparameter for this run:
   NWRITE =      2    write-flag & timer
   PREC   = normal    normal or accurate (medium, high low for compatibility)
   ISTART =      0    job   : 0-new  1-cont  2-samecut
   ICHARG =      2    charge: 1-file 2-atom 10-const
   ISPIN  =      1    spin polarized calculation?
   LNONCOLLINEAR =      F non collinear calculations
   LSORBIT =      F    spin-orbit coupling
   INIWAV =      1    electr: 0-lowe 1-rand  2-diag
   LASPH  =      F    aspherical Exc in radial PAW
   METAGGA=      F    non-selfconsistent MetaGGA calc.

 Electronic Relaxation 1
   ENCUT  =  350.0 eV  25.72 Ry    5.07 a.u.   8.48  8.48 46.99*2*pi/ulx,y,z
   ENINI  =  350.0     initial cutoff
   ENAUG  =  644.9 eV  augmentation charge cutoff
   NELM   =   1000;   NELMIN=  5; NELMDL= -5     # of ELM steps 
   EDIFF  = 0.1E-04   stopping-criterion for ELM
   LREAL  =      T    real-space projection
   NLSPLINE    = F    spline interpolate recip. space projectors
   LCOMPAT=      F    compatible to vasp.4.4
   GGA_COMPAT  = T    GGA compatible to vasp.4.4-vasp.4.6
   LMAXPAW     = -100 max onsite density
   LMAXMIX     =    2 max onsite mixed and CHGCAR
   VOSKOWN=      0    Vosko Wilk Nusair interpolation
   ROPT   =   -0.00050  -0.00050  -0.00050  -0.00050
   ROPT   =   -0.00050
 Ionic relaxation
   EDIFFG = 0.1E-03   stopping-criterion for IOM
   NSW    =      0    number of steps for IOM
   NBLOCK =      1;   KBLOCK =      1    inner block; outer block 
   IBRION =     -1    ionic relax: 0-MD 1-quasi-New 2-CG
   NFREE  =      0    steps in history (QN), initial steepest desc. (CG)
   ISIF   =      2    stress and relaxation
   IWAVPR =     10    prediction:  0-non 1-charg 2-wave 3-comb
   ISYM   =      2    0-nonsym 1-usesym 2-fastsym
   LCORR  =      T    Harris-Foulkes like correction to forces

   POTIM  = 0.5000    time-step for ionic-motion
   TEIN   =    0.0    initial temperature
   TEBEG  =    0.0;   TEEND  =   0.0 temperature during run
   SMASS  =  -3.00    Nose mass-parameter (am)
   estimated Nose-frequenzy (Omega)   =  0.10E-29 period in steps =****** mass=  -0.706E-27a.u.
   SCALEE = 1.0000    scale energy and forces
   NPACO  =    256;   APACO  = 16.0  distance and # of slots for P.C.
   PSTRESS=    0.0 pullay stress

  Mass of Ions in am
   POMASS = 196.97 12.01  1.00192.22195.08
  Ionic Valenz
   ZVAL   =  11.00  4.00  1.00  9.00 10.00
  Atomic Wigner-Seitz radii
   RWIGS  =  -1.00 -1.00 -1.00 -1.00 -1.00
  virtual crystal weights 
   VCA    =   1.00  1.00  1.00  1.00  1.00
   NELECT =     168.0000    total number of electrons
   NUPDOWN=      -1.0000    fix difference up-down

 DOS related values:
   EMIN   =  10.00;   EMAX   =-10.00  energy-range for DOS
   EFERMI =   0.00
   ISMEAR =     1;   SIGMA  =   0.20  broadening in eV -4-tet -1-fermi 0-gaus

 Electronic relaxation 2 (details)
   IALGO  =     38    algorithm
   LDIAG  =      T    sub-space diagonalisation (order eigenvalues)
   LSUBROT=      F    optimize rotation matrix (better conditioning)
   TURBO    =      0    0=normal 1=particle mesh
   IRESTART =      0    0=no restart 2=restart with 2 vectors
   NREBOOT  =      0    no. of reboots
   NMIN     =      0    reboot dimension
   EREF     =   0.00    reference energy to select bands
   IMIX   =      4    mixing-type and parameters
     AMIX     =   0.40;   BMIX     =  1.00
     AMIX_MAG =   1.60;   BMIX_MAG =  1.00
     AMIN     =   0.10
     WC   =   100.;   INIMIX=   1;  MIXPRE=   1;  MAXMIX= -45

 Intra band minimization:
   WEIMIN = 0.0000     energy-eigenvalue tresh-hold
   EBREAK =  0.25E-07  absolut break condition
   DEPER  =   0.30     relativ break condition  

   TIME   =   0.40     timestep for ELM

  volume/ion in A,a.u.               =      39.24       264.83
  Fermi-wavevector in a.u.,A,eV,Ry     =   0.963488  1.820729 12.630418  0.928310
  Thomas-Fermi vector in A             =   2.093038
 
 Write flags
   LWAVE        =      F    write WAVECAR
   LDOWNSAMPLE  =      F    k-point downsampling of WAVECAR
   LCHARG       =      F    write CHGCAR
   LVTOT        =      F    write LOCPOT, total local potential
   LVHAR        =      F    write LOCPOT, Hartree potential only
   LELF         =      F    write electronic localiz. function (ELF)
   LORBIT       =      0    0 simple, 1 ext, 2 COOP (PROOUT), +10 PAW based schemes


 Dipole corrections
   LMONO  =      F    monopole corrections only (constant potential shift)
   LDIPOL =      F    correct potential (dipole corrections)
   IDIPOL =      3    1-x, 2-y, 3-z, 4-all directions 
   EPSILON=  1.0000000 bulk dielectric constant

 Exchange correlation treatment:
   GGA     =    --    GGA type
   LEXCH   =     8    internal setting for exchange type
   VOSKOWN=      0    Vosko Wilk Nusair interpolation
   LHFCALC =     F    Hartree Fock is set to
   LHFONE  =     F    Hartree Fock one center treatment
   AEXX    =    0.0000 exact exchange contribution

 Linear response parameters
   LEPSILON=     F    determine dielectric tensor
   LRPA    =     F    only Hartree local field effects (RPA)
   LNABLA  =     F    use nabla operator in PAW spheres
   LVEL    =     F    velocity operator in full k-point grid
   LINTERFAST=   F  fast interpolation
   KINTER  =     0    interpolate to denser k-point grid
   CSHIFT  =0.1000    complex shift for real part using Kramers Kronig
   OMEGAMAX=  -1.0    maximum frequency
   DEG_THRESHOLD= 0.2000000E-02 threshold for treating states as degnerate
   RTIME   =   -0.100 relaxation time in fs
  (WPLASMAI=    0.000 imaginary part of plasma frequency in eV, 0.658/RTIME)
   DFIELD  = 0.0000000 0.0000000 0.0000000 field for delta impulse in time
 
 Orbital magnetization related:
   ORBITALMAG=     F  switch on orbital magnetization
   LCHIMAG   =     F  perturbation theory with respect to B field
   DQ        =  0.001000  dq finite difference perturbation B field
   LLRAUG    =     F  two centre corrections for induced B field



--------------------------------------------------------------------------------------------------------


 Static calculation
 charge density and potential will be updated during run
 non-spin polarized calculation
 Variant of blocked Davidson
 Davidson routine will perform the subspace rotation
 perform sub-space diagonalisation
    after iterative eigenvector-optimisation
 modified Broyden-mixing scheme, WC =      100.0
 initial mixing is a Kerker type mixing with AMIX =  0.4000 and BMIX =      1.0000
 Hartree-type preconditioning will be used
 using additional bands           16
 real space projection scheme for non local part
 use partial core corrections
 calculate Harris-corrections to forces 
   (improved forces if not selfconsistent)
 use gradient corrections 
 use of overlap-Matrix (Vanderbilt PP)
 Methfessel and Paxton  Order N= 1 SIGMA  =   0.20


--------------------------------------------------------------------------------------------------------


  energy-cutoff  :      350.00
  volume of cell :      824.13
      direct lattice vectors                 reciprocal lattice vectors
     5.557859300  0.000000000  0.000000000     0.179925390 -0.103879972  0.000000000
     2.778929650  4.813247345  0.000000000     0.000000000  0.207759944  0.000000000
     0.000000000  0.000000000 30.806959674     0.000000000  0.000000000  0.032460198

  length of vectors
     5.557859300  5.557859300 30.806959674     0.207759944  0.207759944  0.032460198


 
 k-points in units of 2pi/SCALE and weight: 0.1.Ir1.Au12                            
   0.01124534  0.00649250  0.00000000       0.010
   0.00000000  0.01298500  0.00000000       0.010
  -0.01124534  0.00649250  0.00000000       0.010
   0.03373601 -0.00649250  0.00000000       0.010
   0.02249067  0.02596999  0.00000000       0.010
  -0.01124534  0.03246249  0.00000000       0.010
   0.02249067 -0.02596999  0.00000000       0.010
  -0.01124534 -0.03246249  0.00000000       0.010
  -0.03373601 -0.00649250  0.00000000       0.010
   0.05622668 -0.01947749  0.00000000       0.010
   0.04498135  0.03895499  0.00000000       0.010
  -0.01124534  0.05843248  0.00000000       0.010
   0.04498135 -0.03895499  0.00000000       0.010
  -0.01124534 -0.05843248  0.00000000       0.010
  -0.05622668 -0.01947749  0.00000000       0.010
   0.07871736 -0.03246249  0.00000000       0.010
   0.06747202  0.05193999  0.00000000       0.010
  -0.01124534  0.08440248  0.00000000       0.010
   0.06747202 -0.05193999  0.00000000       0.010
  -0.01124534 -0.08440248  0.00000000       0.010
  -0.07871736 -0.03246249  0.00000000       0.010
  -0.07871736  0.05843248  0.00000000       0.010
   0.08996269 -0.14283496  0.00000000       0.010
  -0.01124534  0.11037247  0.00000000       0.010
   0.08996269 -0.06492498  0.00000000       0.010
  -0.01124534  0.09738747  0.00000000       0.010
   0.07871736  0.05843248  0.00000000       0.010
  -0.05622668  0.04544749  0.00000000       0.010
  -0.06747202 -0.02596999  0.00000000       0.010
  -0.01124534 -0.07141748  0.00000000       0.010
  -0.06747202  0.02596999  0.00000000       0.010
  -0.01124534  0.07141748  0.00000000       0.010
   0.05622668  0.04544749  0.00000000       0.010
  -0.03373601  0.03246249  0.00000000       0.010
  -0.04498135 -0.01298500  0.00000000       0.010
  -0.01124534 -0.04544749  0.00000000       0.010
  -0.04498135  0.01298500  0.00000000       0.010
  -0.01124534  0.04544749  0.00000000       0.010
   0.03373601  0.03246249  0.00000000       0.010
  -0.01124534  0.01947749  0.00000000       0.010
  -0.02249067  0.00000000  0.00000000       0.010
  -0.01124534 -0.01947749  0.00000000       0.010
   0.03373601  0.01947749  0.00000000       0.010
   0.00000000  0.03895499  0.00000000       0.010
  -0.03373601  0.01947749  0.00000000       0.010
   0.05622668  0.00649250  0.00000000       0.010
   0.02249067  0.05193999  0.00000000       0.010
  -0.03373601  0.04544749  0.00000000       0.010
   0.02249067 -0.05193999  0.00000000       0.010
  -0.03373601 -0.04544749  0.00000000       0.010
  -0.05622668  0.00649250  0.00000000       0.010
   0.07871736 -0.00649250  0.00000000       0.010
   0.04498135  0.06492498  0.00000000       0.010
  -0.03373601  0.07141748  0.00000000       0.010
   0.04498135 -0.06492498  0.00000000       0.010
  -0.03373601 -0.07141748  0.00000000       0.010
  -0.07871736 -0.00649250  0.00000000       0.010
  -0.07871736  0.08440248  0.00000000       0.010
   0.06747202 -0.12984997  0.00000000       0.010
  -0.03373601  0.09738747  0.00000000       0.010
   0.06747202 -0.07790998  0.00000000       0.010
  -0.03373601  0.11037247  0.00000000       0.010
   0.07871736 -0.12335747  0.00000000       0.010
  -0.05622668  0.07141748  0.00000000       0.010
   0.08996269 -0.11686497  0.00000000       0.010
  -0.03373601  0.12335747  0.00000000       0.010
   0.08996269 -0.09089498  0.00000000       0.010
  -0.03373601  0.08440248  0.00000000       0.010
   0.05622668  0.07141748  0.00000000       0.010
  -0.03373601  0.05843248  0.00000000       0.010
  -0.06747202  0.00000000  0.00000000       0.010
  -0.03373601 -0.05843248  0.00000000       0.010
   0.05622668  0.03246249  0.00000000       0.010
   0.00000000  0.06492498  0.00000000       0.010
  -0.05622668  0.03246249  0.00000000       0.010
   0.07871736  0.01947749  0.00000000       0.010
   0.02249067  0.07790998  0.00000000       0.010
  -0.05622668  0.05843248  0.00000000       0.010
   0.02249067 -0.07790998  0.00000000       0.010
  -0.05622668 -0.05843248  0.00000000       0.010
  -0.07871736  0.01947749  0.00000000       0.010
  -0.07871736  0.11037247  0.00000000       0.010
   0.04498135 -0.11686497  0.00000000       0.010
  -0.05622668  0.08440248  0.00000000       0.010
   0.04498135 -0.09089498  0.00000000       0.010
  -0.05622668  0.12335747  0.00000000       0.010
   0.07871736 -0.09738747  0.00000000       0.010
  -0.05622668  0.09738747  0.00000000       0.010
   0.06747202 -0.10387997  0.00000000       0.010
  -0.05622668  0.11037247  0.00000000       0.010
   0.07871736  0.04544749  0.00000000       0.010
   0.00000000  0.09089498  0.00000000       0.010
  -0.07871736  0.04544749  0.00000000       0.010
  -0.07871736  0.13634246  0.00000000       0.010
   0.02249067 -0.10387997  0.00000000       0.010
  -0.07871736  0.07141748  0.00000000       0.010
 
 k-points in reciprocal lattice and weights: 0.1.Ir1.Au12                            
   0.06250000  0.06250000  0.00000000       0.010
   0.00000000  0.06250000  0.00000000       0.010
  -0.06250000  0.00000000  0.00000000       0.010
   0.18750000  0.06250000  0.00000000       0.010
   0.12500000  0.18750000  0.00000000       0.010
  -0.06250000  0.12500000  0.00000000       0.010
   0.12500000 -0.06250000  0.00000000       0.010
  -0.06250000 -0.18750000  0.00000000       0.010
  -0.18750000 -0.12500000  0.00000000       0.010
   0.31250000  0.06250000  0.00000000       0.010
   0.25000000  0.31250000  0.00000000       0.010
  -0.06250000  0.25000000  0.00000000       0.010
   0.25000000 -0.06250000  0.00000000       0.010
  -0.06250000 -0.31250000  0.00000000       0.010
  -0.31250000 -0.25000000  0.00000000       0.010
   0.43750000  0.06250000  0.00000000       0.010
   0.37500000  0.43750000  0.00000000       0.010
  -0.06250000  0.37500000  0.00000000       0.010
   0.37500000 -0.06250000  0.00000000       0.010
  -0.06250000 -0.43750000  0.00000000       0.010
  -0.43750000 -0.37500000  0.00000000       0.010
  -0.43750000  0.06250000  0.00000000       0.010
   0.50000000 -0.43750000  0.00000000       0.010
  -0.06250000  0.50000000  0.00000000       0.010
   0.50000000 -0.06250000  0.00000000       0.010
  -0.06250000  0.43750000  0.00000000       0.010
   0.43750000  0.50000000  0.00000000       0.010
  -0.31250000  0.06250000  0.00000000       0.010
  -0.37500000 -0.31250000  0.00000000       0.010
  -0.06250000 -0.37500000  0.00000000       0.010
  -0.37500000 -0.06250000  0.00000000       0.010
  -0.06250000  0.31250000  0.00000000       0.010
   0.31250000  0.37500000  0.00000000       0.010
  -0.18750000  0.06250000  0.00000000       0.010
  -0.25000000 -0.18750000  0.00000000       0.010
  -0.06250000 -0.25000000  0.00000000       0.010
  -0.25000000 -0.06250000  0.00000000       0.010
  -0.06250000  0.18750000  0.00000000       0.010
   0.18750000  0.25000000  0.00000000       0.010
  -0.06250000  0.06250000  0.00000000       0.010
  -0.12500000 -0.06250000  0.00000000       0.010
  -0.06250000 -0.12500000  0.00000000       0.010
   0.18750000  0.18750000  0.00000000       0.010
   0.00000000  0.18750000  0.00000000       0.010
  -0.18750000  0.00000000  0.00000000       0.010
   0.31250000  0.18750000  0.00000000       0.010
   0.12500000  0.31250000  0.00000000       0.010
  -0.18750000  0.12500000  0.00000000       0.010
   0.12500000 -0.18750000  0.00000000       0.010
  -0.18750000 -0.31250000  0.00000000       0.010
  -0.31250000 -0.12500000  0.00000000       0.010
   0.43750000  0.18750000  0.00000000       0.010
   0.25000000  0.43750000  0.00000000       0.010
  -0.18750000  0.25000000  0.00000000       0.010
   0.25000000 -0.18750000  0.00000000       0.010
  -0.18750000 -0.43750000  0.00000000       0.010
  -0.43750000 -0.25000000  0.00000000       0.010
  -0.43750000  0.18750000  0.00000000       0.010
   0.37500000 -0.43750000  0.00000000       0.010
  -0.18750000  0.37500000  0.00000000       0.010
   0.37500000 -0.18750000  0.00000000       0.010
  -0.18750000  0.43750000  0.00000000       0.010
   0.43750000 -0.37500000  0.00000000       0.010
  -0.31250000  0.18750000  0.00000000       0.010
   0.50000000 -0.31250000  0.00000000       0.010
  -0.18750000  0.50000000  0.00000000       0.010
   0.50000000 -0.18750000  0.00000000       0.010
  -0.18750000  0.31250000  0.00000000       0.010
   0.31250000  0.50000000  0.00000000       0.010
  -0.18750000  0.18750000  0.00000000       0.010
  -0.37500000 -0.18750000  0.00000000       0.010
  -0.18750000 -0.37500000  0.00000000       0.010
   0.31250000  0.31250000  0.00000000       0.010
   0.00000000  0.31250000  0.00000000       0.010
  -0.31250000  0.00000000  0.00000000       0.010
   0.43750000  0.31250000  0.00000000       0.010
   0.12500000  0.43750000  0.00000000       0.010
  -0.31250000  0.12500000  0.00000000       0.010
   0.12500000 -0.31250000  0.00000000       0.010
  -0.31250000 -0.43750000  0.00000000       0.010
  -0.43750000 -0.12500000  0.00000000       0.010
  -0.43750000  0.31250000  0.00000000       0.010
   0.25000000 -0.43750000  0.00000000       0.010
  -0.31250000  0.25000000  0.00000000       0.010
   0.25000000 -0.31250000  0.00000000       0.010
  -0.31250000  0.43750000  0.00000000       0.010
   0.43750000 -0.25000000  0.00000000       0.010
  -0.31250000  0.31250000  0.00000000       0.010
   0.37500000 -0.31250000  0.00000000       0.010
  -0.31250000  0.37500000  0.00000000       0.010
   0.43750000  0.43750000  0.00000000       0.010
   0.00000000  0.43750000  0.00000000       0.010
  -0.43750000 -0.00000000  0.00000000       0.010
  -0.43750000  0.43750000  0.00000000       0.010
   0.12500000 -0.43750000  0.00000000       0.010
  -0.43750000  0.12500000  0.00000000       0.010
 
 position of ions in fractional coordinates (direct lattice) 
   0.00442941  0.99441915  0.61818172
   0.00435359  0.03761516  0.70475958
   0.01358312  0.15264794  0.67449012
   0.87885607  0.21517109  0.72606714
   0.90154056  0.91397787  0.70054276
   0.21876148  0.90758821  0.71591007
   0.50228507  0.00297804  0.39324954
   0.50439204  0.49657980  0.61752625
   0.00636926  0.49624208  0.61804719
   0.50612719  0.99566957  0.61780603
   0.33893697  0.83393027  0.54270515
   0.00231916  0.00325708  0.39312595
   0.83940859  0.33392762  0.54259022
   0.67133409  0.66979427  0.46871567
   0.17130286  0.66932446  0.46852214
   0.67119537  0.16955342  0.46844753
   0.17106828  0.16939492  0.46852282
   0.50224521  0.50335666  0.39304558
   0.00208030  0.50324642  0.39320135
   0.33951203  0.33276924  0.54286896
   0.84080393  0.83411951  0.54304265
 
 position of ions in cartesian coordinates  (Angst):
   2.78803892  4.78638533 19.04429922
   0.12872652  0.18105107 21.71150001
   0.49969093  0.73473229 20.77898987
   5.48250368  1.03567166 22.36792107
   7.55051578  4.39920155 21.58159247
   3.73796932  4.36844652 22.05501253
   2.79990550  0.01433403 12.11482266
   4.18330036  2.39016143 19.02410641
   1.41442128  2.38853588 19.04015501
   5.57987940  4.79240389 19.03272553
   4.20119757  4.01391267 16.71909572
   0.02194075  0.01567712 12.11101524
   5.59327619  1.60727624 16.71555509
   5.59249160  3.22388551 14.43970460
   2.81208280  3.22162419 14.43374277
   4.20158647  0.81610256 14.43144409
   1.42151002  0.81533965 14.43376372
   4.19020096  2.42278009 12.10853922
   1.41004843  2.42224950 12.11333801
   2.81170243  1.60170067 16.72414227
   6.99102940  4.01482353 16.72949293
 


--------------------------------------------------------------------------------------------------------


 k-point  1 :   0.0625 0.0625 0.0000  plane waves:   12325
 k-point  2 :   0.0000 0.0625 0.0000  plane waves:   12325
 k-point  3 :  -0.0625 0.0000 0.0000  plane waves:   12325
 k-point  4 :   0.1875 0.0625 0.0000  plane waves:   12294
 k-point  5 :   0.1250 0.1875 0.0000  plane waves:   12294
 k-point  6 :  -0.0625 0.1250 0.0000  plane waves:   12294
 k-point  7 :   0.1250-0.0625 0.0000  plane waves:   12294
 k-point  8 :  -0.0625-0.1875 0.0000  plane waves:   12294
 k-point  9 :  -0.1875-0.1250 0.0000  plane waves:   12294
 k-point 10 :   0.3125 0.0625 0.0000  plane waves:   12263
 k-point 11 :   0.2500 0.3125 0.0000  plane waves:   12263
 k-point 12 :  -0.0625 0.2500 0.0000  plane waves:   12263
 k-point 13 :   0.2500-0.0625 0.0000  plane waves:   12263
 k-point 14 :  -0.0625-0.3125 0.0000  plane waves:   12263
 k-point 15 :  -0.3125-0.2500 0.0000  plane waves:   12263
 k-point 16 :   0.4375 0.0625 0.0000  plane waves:   12221
 k-point 17 :   0.3750 0.4375 0.0000  plane waves:   12221
 k-point 18 :  -0.0625 0.3750 0.0000  plane waves:   12221
 k-point 19 :   0.3750-0.0625 0.0000  plane waves:   12221
 k-point 20 :  -0.0625-0.4375 0.0000  plane waves:   12221
 k-point 21 :  -0.4375-0.3750 0.0000  plane waves:   12221
 k-point 22 :  -0.4375 0.0625 0.0000  plane waves:   12211
 k-point 23 :   0.5000-0.4375 0.0000  plane waves:   12211
 k-point 24 :  -0.0625 0.5000 0.0000  plane waves:   12211
 k-point 25 :   0.5000-0.0625 0.0000  plane waves:   12211
 k-point 26 :  -0.0625 0.4375 0.0000  plane waves:   12211
 k-point 27 :   0.4375 0.5000 0.0000  plane waves:   12211
 k-point 28 :  -0.3125 0.0625 0.0000  plane waves:   12242
 k-point 29 :  -0.3750-0.3125 0.0000  plane waves:   12242
 k-point 30 :  -0.0625-0.3750 0.0000  plane waves:   12242
 k-point 31 :  -0.3750-0.0625 0.0000  plane waves:   12242
 k-point 32 :  -0.0625 0.3125 0.0000  plane waves:   12242
 k-point 33 :   0.3125 0.3750 0.0000  plane waves:   12242
 k-point 34 :  -0.1875 0.0625 0.0000  plane waves:   12280
 k-point 35 :  -0.2500-0.1875 0.0000  plane waves:   12280
 k-point 36 :  -0.0625-0.2500 0.0000  plane waves:   12280
 k-point 37 :  -0.2500-0.0625 0.0000  plane waves:   12280
 k-point 38 :  -0.0625 0.1875 0.0000  plane waves:   12280
 k-point 39 :   0.1875 0.2500 0.0000  plane waves:   12280
 k-point 40 :  -0.0625 0.0625 0.0000  plane waves:   12329
 k-point 41 :  -0.1250-0.0625 0.0000  plane waves:   12329
 k-point 42 :  -0.0625-0.1250 0.0000  plane waves:   12329
 k-point 43 :   0.1875 0.1875 0.0000  plane waves:   12277
 k-point 44 :   0.0000 0.1875 0.0000  plane waves:   12277
 k-point 45 :  -0.1875 0.0000 0.0000  plane waves:   12277
 k-point 46 :   0.3125 0.1875 0.0000  plane waves:   12288
 k-point 47 :   0.1250 0.3125 0.0000  plane waves:   12288
 k-point 48 :  -0.1875 0.1250 0.0000  plane waves:   12288
 k-point 49 :   0.1250-0.1875 0.0000  plane waves:   12288
 k-point 50 :  -0.1875-0.3125 0.0000  plane waves:   12288
 k-point 51 :  -0.3125-0.1250 0.0000  plane waves:   12288
 k-point 52 :   0.4375 0.1875 0.0000  plane waves:   12234
 k-point 53 :   0.2500 0.4375 0.0000  plane waves:   12234
 k-point 54 :  -0.1875 0.2500 0.0000  plane waves:   12234
 k-point 55 :   0.2500-0.1875 0.0000  plane waves:   12234
 k-point 56 :  -0.1875-0.4375 0.0000  plane waves:   12234
 k-point 57 :  -0.4375-0.2500 0.0000  plane waves:   12234
 k-point 58 :  -0.4375 0.1875 0.0000  plane waves:   12216
 k-point 59 :   0.3750-0.4375 0.0000  plane waves:   12216
 k-point 60 :  -0.1875 0.3750 0.0000  plane waves:   12216
 k-point 61 :   0.3750-0.1875 0.0000  plane waves:   12216
 k-point 62 :  -0.1875 0.4375 0.0000  plane waves:   12216
 k-point 63 :   0.4375-0.3750 0.0000  plane waves:   12216
 k-point 64 :  -0.3125 0.1875 0.0000  plane waves:   12215
 k-point 65 :   0.5000-0.3125 0.0000  plane waves:   12215
 k-point 66 :  -0.1875 0.5000 0.0000  plane waves:   12215
 k-point 67 :   0.5000-0.1875 0.0000  plane waves:   12215
 k-point 68 :  -0.1875 0.3125 0.0000  plane waves:   12215
 k-point 69 :   0.3125 0.5000 0.0000  plane waves:   12215
 k-point 70 :  -0.1875 0.1875 0.0000  plane waves:   12289
 k-point 71 :  -0.3750-0.1875 0.0000  plane waves:   12289
 k-point 72 :  -0.1875-0.3750 0.0000  plane waves:   12289
 k-point 73 :   0.3125 0.3125 0.0000  plane waves:   12275
 k-point 74 :   0.0000 0.3125 0.0000  plane waves:   12275
 k-point 75 :  -0.3125 0.0000 0.0000  plane waves:   12275
 k-point 76 :   0.4375 0.3125 0.0000  plane waves:   12239
 k-point 77 :   0.1250 0.4375 0.0000  plane waves:   12239
 k-point 78 :  -0.3125 0.1250 0.0000  plane waves:   12239
 k-point 79 :   0.1250-0.3125 0.0000  plane waves:   12239
 k-point 80 :  -0.3125-0.4375 0.0000  plane waves:   12239
 k-point 81 :  -0.4375-0.1250 0.0000  plane waves:   12239
 k-point 82 :  -0.4375 0.3125 0.0000  plane waves:   12235
 k-point 83 :   0.2500-0.4375 0.0000  plane waves:   12235
 k-point 84 :  -0.3125 0.2500 0.0000  plane waves:   12235
 k-point 85 :   0.2500-0.3125 0.0000  plane waves:   12235
 k-point 86 :  -0.3125 0.4375 0.0000  plane waves:   12235
 k-point 87 :   0.4375-0.2500 0.0000  plane waves:   12235
 k-point 88 :  -0.3125 0.3125 0.0000  plane waves:   12232
 k-point 89 :   0.3750-0.3125 0.0000  plane waves:   12232
 k-point 90 :  -0.3125 0.3750 0.0000  plane waves:   12232
 k-point 91 :   0.4375 0.4375 0.0000  plane waves:   12200
 k-point 92 :   0.0000 0.4375 0.0000  plane waves:   12200
 k-point 93 :  -0.4375-0.0000 0.0000  plane waves:   12200
 k-point 94 :  -0.4375 0.4375 0.0000  plane waves:   12214
 k-point 95 :   0.1250-0.4375 0.0000  plane waves:   12214
 k-point 96 :  -0.4375 0.1250 0.0000  plane waves:   12214

 maximum and minimum number of plane-waves per node :      3101     2992

 maximum number of plane-waves:     12329
 maximum index in each direction: 
   IXMAX=    8   IYMAX=    8   IZMAX=   46
   IXMIN=   -8   IYMIN=   -8   IZMIN=  -46


 real space projection operators:
  total allocation   :       5095.41 KBytes
  max/ min on nodes  :       1278.22       1270.16


 parallel 3D FFT for wavefunctions:
    minimum data exchange during FFTs selected (reduces bandwidth)
 parallel 3D FFT for charge:
    minimum data exchange during FFTs selected (reduces bandwidth)


 total amount of memory used by VASP MPI-rank0   164312. kBytes
=======================================================================

   base      :      30000. kBytes
   nonlr-proj:       2359. kBytes
   fftplans  :       2967. kBytes
   grid      :       6321. kBytes
   one-center:         93. kBytes
   wavefun   :     122572. kBytes
 
     INWAV:  cpu time    0.0000: real time    0.0000
 Broyden mixing: mesh for mixing (old mesh)
   NGX = 17   NGY = 17   NGZ = 93
  (NGX  = 56   NGY  = 56   NGZ  =288)
  gives a total of  26877 points

 initial charge density was supplied:
 charge density of overlapping atoms calculated
 number of electron     168.0000000 magnetization 
 keeping initial charge density in first step


--------------------------------------------------------------------------------------------------------


 Maximum index for non-local projection operator          543
 Maximum index for augmentation-charges          721 (set IRDMAX)


--------------------------------------------------------------------------------------------------------


 First call to EWALD:  gamma=   0.189
 Maximum number of real-space cells 5x 5x 1
 Maximum number of reciprocal cells 2x 2x 8

    FEWALD:  cpu time    0.0013: real time    0.0013


--------------------------------------- Iteration      1(   1)  ---------------------------------------


    POTLOK:  cpu time    0.0262: real time    0.0335
    SETDIJ:  cpu time    0.0034: real time    0.0034
     EDDAV:  cpu time   13.9676: real time   14.0015
       DOS:  cpu time    0.0076: real time    0.0076
    --------------------------------------------
      LOOP:  cpu time   14.0047: real time   14.0460

 eigenvalue-minimisations  : 19288
 total energy-change (2. order) : 0.1029665E+04  (-0.5832117E+04)
 number of electron     168.0000000 magnetization 
 augmentation part      168.0000000 magnetization 

 Free energy of the ion-electron system (eV)
  ---------------------------------------------------
  alpha Z        PSCENC =       324.87461712
  Ewald energy   TEWEN  =    101195.71294582
  -Hartree energ DENC   =   -113480.31460768
  -exchange      EXHF   =         0.00000000
  -V(xc)+E(xc)   XCENC  =        69.40242930
  PAW double counting   =     11288.27476651   -10829.50941267
  entropy T*S    EENTRO =        -0.00526221
  eigenvalues    EBANDS =       570.59258232
  atomic energy  EATOM  =     11890.63736546
  Solvation  Ediel_sol  =         0.00000000
  ---------------------------------------------------
  free energy    TOTEN  =      1029.66542397 eV

  energy without entropy =     1029.67068618  energy(sigma->0) =     1029.66717804


--------------------------------------------------------------------------------------------------------




--------------------------------------- Iteration      1(   2)  ---------------------------------------


     EDDAV:  cpu time   16.6031: real time   16.6432
       DOS:  cpu time    0.0083: real time    0.0083
    --------------------------------------------
      LOOP:  cpu time   16.6114: real time   16.6516

 eigenvalue-minimisations  : 23920
 total energy-change (2. order) :-0.1058068E+04  (-0.9827080E+03)
 number of electron     168.0000000 magnetization 
 augmentation part      168.0000000 magnetization 

 Free energy of the ion-electron system (eV)
  ---------------------------------------------------
  alpha Z        PSCENC =       324.87461712
  Ewald energy   TEWEN  =    101195.71294582
  -Hartree energ DENC   =   -113480.31460768
  -exchange      EXHF   =         0.00000000
  -V(xc)+E(xc)   XCENC  =        69.40242930
  PAW double counting   =     11288.27476651   -10829.50941267
  entropy T*S    EENTRO =        -0.00057405
  eigenvalues    EBANDS =      -487.48006640
  atomic energy  EATOM  =     11890.63736546
  Solvation  Ediel_sol  =         0.00000000
  ---------------------------------------------------
  free energy    TOTEN  =       -28.40253659 eV

  energy without entropy =      -28.40196254  energy(sigma->0) =      -28.40234524


--------------------------------------------------------------------------------------------------------




--------------------------------------- Iteration      1(   3)  ---------------------------------------


     EDDAV:  cpu time   16.0256: real time   16.0739
       DOS:  cpu time    0.0089: real time    0.0089
    --------------------------------------------
      LOOP:  cpu time   16.0345: real time   16.0828

 eigenvalue-minimisations  : 22960
 total energy-change (2. order) :-0.9211041E+02  (-0.8512858E+02)
 number of electron     168.0000000 magnetization 
 augmentation part      168.0000000 magnetization 

 Free energy of the ion-electron system (eV)
  ---------------------------------------------------
  alpha Z        PSCENC =       324.87461712
  Ewald energy   TEWEN  =    101195.71294582
  -Hartree energ DENC   =   -113480.31460768
  -exchange      EXHF   =         0.00000000
  -V(xc)+E(xc)   XCENC  =        69.40242930
  PAW double counting   =     11288.27476651   -10829.50941267
  entropy T*S    EENTRO =        -0.01893214
  eigenvalues    EBANDS =      -579.57211386
  atomic energy  EATOM  =     11890.63736546
  Solvation  Ediel_sol  =         0.00000000
  ---------------------------------------------------
  free energy    TOTEN  =      -120.51294214 eV

  energy without entropy =     -120.49401000  energy(sigma->0) =     -120.50663143


--------------------------------------------------------------------------------------------------------




--------------------------------------- Iteration      1(   4)  ---------------------------------------


     EDDAV:  cpu time   17.5588: real time   17.6044
       DOS:  cpu time    0.0087: real time    0.0087
    --------------------------------------------
      LOOP:  cpu time   17.5675: real time   17.6130

 eigenvalue-minimisations  : 25732
 total energy-change (2. order) :-0.4467640E+01  (-0.4249760E+01)
 number of electron     168.0000000 magnetization 
 augmentation part      168.0000000 magnetization 

 Free energy of the ion-electron system (eV)
  ---------------------------------------------------
  alpha Z        PSCENC =       324.87461712
  Ewald energy   TEWEN  =    101195.71294582
  -Hartree energ DENC   =   -113480.31460768
  -exchange      EXHF   =         0.00000000
  -V(xc)+E(xc)   XCENC  =        69.40242930
  PAW double counting   =     11288.27476651   -10829.50941267
  entropy T*S    EENTRO =        -0.02824069
  eigenvalues    EBANDS =      -584.03044565
  atomic energy  EATOM  =     11890.63736546
  Solvation  Ediel_sol  =         0.00000000
  ---------------------------------------------------
  free energy    TOTEN  =      -124.98058249 eV

  energy without entropy =     -124.95234179  energy(sigma->0) =     -124.97116892


--------------------------------------------------------------------------------------------------------




--------------------------------------- Iteration      1(   5)  ---------------------------------------


     EDDAV:  cpu time   18.1560: real time   18.2058
       DOS:  cpu time    0.0087: real time    0.0087
    CHARGE:  cpu time    0.7076: real time    0.7093
    MIXING:  cpu time    0.0009: real time    0.0009
    --------------------------------------------
      LOOP:  cpu time   18.8732: real time   18.9248

 eigenvalue-minimisations  : 26784
 total energy-change (2. order) :-0.1408072E+00  (-0.1395442E+00)
 number of electron     168.0000070 magnetization 
 augmentation part       47.0754662 magnetization 

 Broyden mixing:
  rms(total) = 0.43115E+01    rms(broyden)= 0.43114E+01
  rms(prec ) = 0.43530E+01
  weight for this iteration     100.00

 Free energy of the ion-electron system (eV)
  ---------------------------------------------------
  alpha Z        PSCENC =       324.87461712
  Ewald energy   TEWEN  =    101195.71294582
  -Hartree energ DENC   =   -113480.31460768
  -exchange      EXHF   =         0.00000000
  -V(xc)+E(xc)   XCENC  =        69.40242930
  PAW double counting   =     11288.27476651   -10829.50941267
  entropy T*S    EENTRO =        -0.02826301
  eigenvalues    EBANDS =      -584.17123052
  atomic energy  EATOM  =     11890.63736546
  Solvation  Ediel_sol  =         0.00000000
  ---------------------------------------------------
  free energy    TOTEN  =      -125.12138968 eV

  energy without entropy =     -125.09312666  energy(sigma->0) =     -125.11196867


--------------------------------------------------------------------------------------------------------




--------------------------------------- Iteration      1(   6)  ---------------------------------------


    POTLOK:  cpu time    0.0237: real time    0.0242
    SETDIJ:  cpu time    0.0034: real time    0.0034
     EDDAV:  cpu time   15.5845: real time   15.6261
       DOS:  cpu time    0.0097: real time    0.0097
    CHARGE:  cpu time    0.7606: real time    0.7624
    MIXING:  cpu time    0.0011: real time    0.0011
    --------------------------------------------
      LOOP:  cpu time   16.3830: real time   16.4270

 eigenvalue-minimisations  : 22128
 total energy-change (2. order) : 0.6924966E+01  (-0.3218825E+01)
 number of electron     168.0000073 magnetization 
 augmentation part       49.8353709 magnetization 

 Broyden mixing:
  rms(total) = 0.32270E+01    rms(broyden)= 0.32269E+01
  rms(prec ) = 0.33393E+01
  weight for this iteration     100.00

 eigenvalues of (default mixing * dielectric matrix)
  average eigenvalue GAMMA=   1.2200
  1.2200

 Free energy of the ion-electron system (eV)
  ---------------------------------------------------
  alpha Z        PSCENC =       324.87461712
  Ewald energy   TEWEN  =    101195.71294582
  -Hartree energ DENC   =   -113284.85413048
  -exchange      EXHF   =         0.00000000
  -V(xc)+E(xc)   XCENC  =        66.31154086
  PAW double counting   =     12566.39408048   -12131.31595388
  entropy T*S    EENTRO =        -0.02930403
  eigenvalues    EBANDS =      -745.92758545
  atomic energy  EATOM  =     11890.63736546
  Solvation  Ediel_sol  =         0.00000000
  ---------------------------------------------------
  free energy    TOTEN  =      -118.19642409 eV

  energy without entropy =     -118.16712007  energy(sigma->0) =     -118.18665608


--------------------------------------------------------------------------------------------------------




--------------------------------------- Iteration      1(   7)  ---------------------------------------


    POTLOK:  cpu time    0.0224: real time    0.0235
    SETDIJ:  cpu time    0.0033: real time    0.0033
     EDDAV:  cpu time   16.0248: real time   16.0646
       DOS:  cpu time    0.0091: real time    0.0092
    CHARGE:  cpu time    0.7090: real time    0.7106
    MIXING:  cpu time    0.0010: real time    0.0010
    --------------------------------------------
      LOOP:  cpu time   16.7696: real time   16.8123

 eigenvalue-minimisations  : 22908
 total energy-change (2. order) :-0.2484111E+02  (-0.1153796E+02)
 number of electron     168.0000073 magnetization 
 augmentation part       48.8252886 magnetization 

 Broyden mixing:
  rms(total) = 0.44331E+01    rms(broyden)= 0.44329E+01
  rms(prec ) = 0.50125E+01
  weight for this iteration     100.00

 eigenvalues of (default mixing * dielectric matrix)
  average eigenvalue GAMMA=   1.1169
  1.9736  0.2601

 Free energy of the ion-electron system (eV)
  ---------------------------------------------------
  alpha Z        PSCENC =       324.87461712
  Ewald energy   TEWEN  =    101195.71294582
  -Hartree energ DENC   =   -113451.57197734
  -exchange      EXHF   =         0.00000000
  -V(xc)+E(xc)   XCENC  =        65.83687836
  PAW double counting   =     13521.50694341   -13095.97910415
  entropy T*S    EENTRO =         0.01358369
  eigenvalues    EBANDS =      -594.06878419
  atomic energy  EATOM  =     11890.63736546
  Solvation  Ediel_sol  =         0.00000000
  ---------------------------------------------------
  free energy    TOTEN  =      -143.03753181 eV

  energy without entropy =     -143.05111550  energy(sigma->0) =     -143.04205971


--------------------------------------------------------------------------------------------------------




--------------------------------------- Iteration      1(   8)  ---------------------------------------


    POTLOK:  cpu time    0.0236: real time    0.0241
    SETDIJ:  cpu time    0.0034: real time    0.0034
     EDDAV:  cpu time   16.3877: real time   16.4915
       DOS:  cpu time    0.0098: real time    0.0098
    CHARGE:  cpu time    0.7295: real time    0.7313
    MIXING:  cpu time    0.0012: real time    0.0012
    --------------------------------------------
      LOOP:  cpu time   17.1552: real time   17.2613

 eigenvalue-minimisations  : 23572
 total energy-change (2. order) : 0.1801190E+02  (-0.4784214E+01)
 number of electron     168.0000090 magnetization 
 augmentation part       50.5769544 magnetization 

 Broyden mixing:
  rms(total) = 0.28395E+01    rms(broyden)= 0.28394E+01
  rms(prec ) = 0.32991E+01
  weight for this iteration     100.00

 eigenvalues of (default mixing * dielectric matrix)
  average eigenvalue GAMMA=   0.9018
  2.0886  0.3084  0.3084

 Free energy of the ion-electron system (eV)
  ---------------------------------------------------
  alpha Z        PSCENC =       324.87461712
  Ewald energy   TEWEN  =    101195.71294582
  -Hartree energ DENC   =   -113339.59900390
  -exchange      EXHF   =         0.00000000
  -V(xc)+E(xc)   XCENC  =        65.32534742
  PAW double counting   =     14459.46405380   -14044.74023091
  entropy T*S    EENTRO =        -0.02558123
  eigenvalues    EBANDS =      -676.67514275
  atomic energy  EATOM  =     11890.63736546
  Solvation  Ediel_sol  =         0.00000000
[...]
     21      -5.1639      2.00000
     22      -5.1340      2.00000
     23      -5.0572      2.00000
     24      -4.9240      2.00000
     25      -4.8537      2.00000
     26      -4.7853      2.00000
     27      -4.7627      2.00000
     28      -4.6800      2.00000
     29      -4.6246      2.00000
     30      -4.5632      2.00000
     31      -4.5512      2.00000
     32      -4.4991      2.00000
     33      -4.3059      2.00000
     34      -4.2420      2.00000
     35      -4.1658      2.00000
     36      -4.0463      2.00000
     37      -4.0271      2.00000
     38      -3.9406      2.00000
     39      -3.8767      2.00000
     40      -3.7784      2.00000
     41      -3.7089      2.00000
     42      -3.6368      2.00000
     43      -3.5773      2.00000
     44      -3.5241      2.00000
     45      -3.4934      2.00000
     46      -3.4296      2.00000
     47      -3.3053      2.00000
     48      -3.2187      2.00000
     49      -3.1687      2.00000
     50      -3.1452      2.00000
     51      -3.1014      2.00000
     52      -3.0678      2.00000
     53      -3.0453      2.00000
     54      -2.9558      2.00000
     55      -2.8426      2.00000
     56      -2.7254      2.00000
     57      -2.5008      2.00000
     58      -2.4521      2.00000
     59      -2.4001      2.00000
     60      -2.3639      2.00000
     61      -2.3531      2.00000
     62      -2.1945      2.00000
     63      -2.1695      2.00000
     64      -2.0487      2.00000
     65      -1.9990      2.00000
     66      -1.9712      2.00000
     67      -1.8617      2.00000
     68      -1.7865      2.00000
     69      -1.6904      2.00000
     70      -1.5994      2.00000
     71      -1.5362      2.00000
     72      -1.4582      2.00000
     73      -1.4262      2.00000
     74      -1.3505      2.00000
     75      -1.3227      2.00000
     76      -1.2683      2.00000
     77      -1.1667      2.00000
     78      -1.0590      2.00000
     79      -0.8909      2.00010
     80      -0.7244      2.00577
     81      -0.7029      2.00869
     82      -0.6244      2.03013
     83      -0.4581      2.03880
     84      -0.3397      1.56788
     85      -0.3136      1.37734
     86      -0.2234      0.63568
     87      -0.1139      0.03659
     88      -0.0802     -0.03467
     89       0.1365     -0.01494
     90       0.2044     -0.00422
     91       0.7342     -0.00000
     92       1.0365     -0.00000
     93       1.9661     -0.00000
     94       2.0548     -0.00000
     95       2.2816     -0.00000
     96       2.8680     -0.00000
     97       3.6527     -0.00000
     98       3.9448     -0.00000
     99       4.4177     -0.00000
    100       4.5432     -0.00000

 k-point    96 :      -0.4375    0.1250    0.0000
  band No.  band energies     occupation 
      1     -13.0958      2.00000
      2      -7.8410      2.00000
      3      -7.7733      2.00000
      4      -7.0327      2.00000
      5      -6.7426      2.00000
      6      -6.4626      2.00000
      7      -6.3063      2.00000
      8      -6.1073      2.00000
      9      -5.9939      2.00000
     10      -5.9477      2.00000
     11      -5.8616      2.00000
     12      -5.7783      2.00000
     13      -5.7122      2.00000
     14      -5.6914      2.00000
     15      -5.6650      2.00000
     16      -5.6125      2.00000
     17      -5.5003      2.00000
     18      -5.4302      2.00000
     19      -5.2593      2.00000
     20      -5.2293      2.00000
     21      -5.1546      2.00000
     22      -5.1219      2.00000
     23      -5.0373      2.00000
     24      -4.9283      2.00000
     25      -4.8575      2.00000
     26      -4.7773      2.00000
     27      -4.7198      2.00000
     28      -4.6809      2.00000
     29      -4.6387      2.00000
     30      -4.5633      2.00000
     31      -4.5469      2.00000
     32      -4.5145      2.00000
     33      -4.2815      2.00000
     34      -4.2260      2.00000
     35      -4.1727      2.00000
     36      -4.0990      2.00000
     37      -4.0371      2.00000
     38      -3.9638      2.00000
     39      -3.8886      2.00000
     40      -3.7904      2.00000
     41      -3.6979      2.00000
     42      -3.6315      2.00000
     43      -3.5912      2.00000
     44      -3.5673      2.00000
     45      -3.4942      2.00000
     46      -3.4413      2.00000
     47      -3.2984      2.00000
     48      -3.2041      2.00000
     49      -3.1726      2.00000
     50      -3.1441      2.00000
     51      -3.1005      2.00000
     52      -3.0617      2.00000
     53      -3.0421      2.00000
     54      -2.9147      2.00000
     55      -2.8499      2.00000
     56      -2.7797      2.00000
     57      -2.5206      2.00000
     58      -2.4361      2.00000
     59      -2.4020      2.00000
     60      -2.3506      2.00000
     61      -2.3234      2.00000
     62      -2.2069      2.00000
     63      -2.1604      2.00000
     64      -2.0557      2.00000
     65      -1.9976      2.00000
     66      -1.9934      2.00000
     67      -1.8361      2.00000
     68      -1.7891      2.00000
     69      -1.6990      2.00000
     70      -1.6502      2.00000
     71      -1.5132      2.00000
     72      -1.4497      2.00000
     73      -1.4105      2.00000
     74      -1.3624      2.00000
     75      -1.3289      2.00000
     76      -1.2493      2.00000
     77      -1.1621      2.00000
     78      -1.0183      2.00000
     79      -0.9244      2.00004
     80      -0.8108      2.00084
     81      -0.7325      2.00490
     82      -0.5424      2.06539
     83      -0.4335      1.99436
     84      -0.3359      1.54214
     85      -0.3250      1.46356
     86      -0.2326      0.70797
     87      -0.1412      0.13189
     88      -0.0377     -0.06900
     89       0.1070     -0.02356
     90       0.2463     -0.00168
     91       0.7308     -0.00000
     92       1.0368     -0.00000
     93       1.9568     -0.00000
     94       2.0305     -0.00000
     95       2.3367     -0.00000
     96       2.8718     -0.00000
     97       3.6162     -0.00000
     98       3.9423     -0.00000
     99       4.4159     -0.00000
    100       4.5314     -0.00000


--------------------------------------------------------------------------------------------------------


 soft charge-density along one line, spin component           1
         0         1         2         3         4         5         6         7         8         9
 total charge-density along one line
 
 pseudopotential strength for first ion, spin component:           1
 -7.929  -0.005   0.003  -0.013   0.000  -8.078  -0.005   0.003
 -0.005  -7.886  -0.006  -0.005   0.003  -0.005  -8.036  -0.006
  0.003  -0.006  -7.890  -0.005  -0.001   0.003  -0.006  -8.040
 -0.013  -0.005  -0.005  -7.882  -0.004  -0.013  -0.005  -0.005
  0.000   0.003  -0.001  -0.004  -7.929   0.000   0.003  -0.001
 -8.078  -0.005   0.003  -0.013   0.000  -8.210  -0.005   0.002
 -0.005  -8.036  -0.006  -0.005   0.003  -0.005  -8.170  -0.006
  0.003  -0.006  -8.040  -0.005  -0.001   0.002  -0.006  -8.174
 -0.013  -0.005  -0.005  -8.032  -0.004  -0.013  -0.005  -0.005
  0.000   0.003  -0.001  -0.004  -8.078   0.000   0.003  -0.001
  0.002   0.005  -0.012   0.003  -0.001   0.002   0.005  -0.012
  0.003   0.007  -0.018   0.004  -0.001   0.003   0.007  -0.017
  0.002   0.009  -0.001   0.001  -0.003   0.002   0.009  -0.001
  0.001   0.004   0.014   0.002  -0.000   0.001   0.004   0.014
  0.002   0.001  -0.000   0.009   0.001   0.002   0.001  -0.000
  0.002   0.010  -0.001   0.001  -0.004   0.002   0.010  -0.001
  0.001   0.005   0.017   0.003  -0.000   0.001   0.006   0.016
  0.003   0.001  -0.000   0.010   0.002   0.003   0.001  -0.000
 total augmentation occupancy for first ion, spin component:           1
  5.094   0.104   0.184   0.035  -0.006  -3.220  -0.123  -0.175  -0.140   0.010  -0.113   0.044  -0.010  -0.041   0.041   0.002
  0.104   5.345   0.729   0.298  -0.034  -0.124  -3.106  -0.727  -0.317  -0.016  -0.364   0.151   0.140  -0.162  -0.031   0.006
  0.184   0.729   7.141   0.371  -0.090  -0.175  -0.726  -4.968  -0.389   0.081   0.159   0.211  -0.079  -0.067  -0.049   0.004
  0.035   0.298   0.371   5.176  -0.026  -0.141  -0.317  -0.389  -2.926   0.018  -0.224   0.090  -0.030  -0.089   0.180   0.002
 -0.006  -0.034  -0.090  -0.026   5.072   0.010  -0.018   0.081   0.019  -3.197   0.030  -0.020   0.053   0.019   0.011  -0.005
 -3.220  -0.124  -0.175  -0.141   0.010   3.221   0.141   0.165   0.224  -0.014   0.106  -0.043   0.009   0.036  -0.040  -0.001
 -0.123  -3.106  -0.726  -0.317  -0.018   0.141   2.830   0.719   0.332   0.052   0.341  -0.146  -0.132   0.141   0.028   0.003
 -0.175  -0.727  -4.968  -0.389   0.081   0.165   0.719   4.715   0.401  -0.073  -0.175  -0.177   0.070  -0.000   0.044  -0.004
 -0.140  -0.317  -0.389  -2.926   0.019   0.224   0.332   0.401   2.641  -0.011   0.213  -0.088   0.028   0.078  -0.171  -0.002
  0.010  -0.016   0.081   0.018  -3.197  -0.014   0.052  -0.073  -0.011   3.198  -0.026   0.017  -0.047  -0.018  -0.012   0.002
 -0.113  -0.364   0.159  -0.224   0.030   0.106   0.341  -0.175   0.213  -0.026   2.744  -0.697   0.015  -0.093   0.007  -0.001
  0.044   0.151   0.211   0.090  -0.020  -0.043  -0.146  -0.177  -0.088   0.017  -0.697   0.222  -0.015   0.015  -0.008   0.001
 -0.010   0.140  -0.079  -0.030   0.053   0.009  -0.132   0.070   0.028  -0.047   0.015  -0.015   0.246   0.009   0.003  -0.008
 -0.041  -0.162  -0.067  -0.089   0.019   0.036   0.141  -0.000   0.078  -0.018  -0.093   0.015   0.009   0.179   0.006  -0.001
  0.041  -0.031  -0.049   0.180   0.011  -0.040   0.028   0.044  -0.171  -0.012   0.007  -0.008   0.003   0.006   0.245  -0.000
  0.002   0.006   0.004   0.002  -0.005  -0.001   0.003  -0.004  -0.002   0.002  -0.001   0.001  -0.008  -0.001  -0.000   0.000
  0.002   0.013   0.026   0.007  -0.001  -0.002  -0.008  -0.010  -0.005   0.001   0.006  -0.000  -0.001  -0.008  -0.001   0.000
  0.001   0.002   0.002   0.003   0.001   0.001  -0.002  -0.002   0.005   0.000  -0.000   0.000  -0.000  -0.001  -0.007   0.000


------------------------ aborting loop because EDIFF is reached ----------------------------------------



 DIPCOR: dipole corrections for dipol
 direction  3 min pos    21,
 dipolmoment           0.000000      0.000000     -0.259268 electrons x Angstroem
 Tr[quadrupol]      -938.986958

 energy correction for charged system         0.000000 eV
 dipol+quadrupol energy correction            0.007380 eV
 added-field ion interaction          0.000000 eV  (added to PSCEN)

 
  *************** adding dipol energy to TOTEN NOW **************** 
    CHARGE:  cpu time    0.7093: real time    0.7111
    FORLOC:  cpu time    0.0071: real time    0.0071
    FORNL :  cpu time    3.2197: real time    3.2274
    STRESS:  cpu time    9.5592: real time    9.5819
    FORCOR:  cpu time    0.0281: real time    0.0282
    FORHAR:  cpu time    0.0118: real time    0.0118
    MIXING:  cpu time    0.0039: real time    0.0040
    OFIELD:  cpu time    0.0000: real time    0.0000

  FORCE on cell =-STRESS in cart. coord.  units (eV):
  Direction    XX          YY          ZZ          XY          YZ          ZX
  --------------------------------------------------------------------------------------
  Alpha Z   324.87462   324.87462   324.87462
  Ewald  110081.96756110080.72198************     7.71631    14.90956     5.68428
  Hartree112570.03871112569.91761************     3.24617     5.63152     2.31333
  E(xc)    -737.66168  -737.65547  -741.81416     0.02552     0.06484     0.01999
  Local  ************************227794.74567   -10.26455   -18.61078    -7.36596
  n-local    45.09309    44.82812    28.53493    -0.06565     0.01700    -0.07074
  augment   835.04092   835.34051   861.18824    -0.07732    -0.49545    -0.13076
  Kinetic  2386.02859  2385.75136  2454.84961    -0.76115    -0.87177    -0.09205
  Fock        0.00000     0.00000     0.00000     0.00000     0.00000     0.00000
  -------------------------------------------------------------------------------------
  Total      -9.96242   -10.23014     3.63899    -0.18067     0.64491     0.35809
  in kB     -19.36783   -19.88830     7.07451    -0.35124     1.25377     0.69616
  external pressure =      -10.73 kB  Pullay stress =        0.00 kB


 VOLUME and BASIS-vectors are now :
 -----------------------------------------------------------------------------
  energy-cutoff  :      350.00
  volume of cell :      824.13
      direct lattice vectors                 reciprocal lattice vectors
     5.557859300  0.000000000  0.000000000     0.179925390 -0.103879972  0.000000000
     2.778929650  4.813247345  0.000000000     0.000000000  0.207759944  0.000000000
     0.000000000  0.000000000 30.806959674     0.000000000  0.000000000  0.032460198

  length of vectors
     5.557859300  5.557859300 30.806959674     0.207759944  0.207759944  0.032460198


 FORCES acting on ions
    electron-ion (+dipol)            ewald-force                    non-local-force                 convergence-correction
 -----------------------------------------------------------------------------------------------
   0.334E+01 0.902E+01 -.280E+04   -.372E+01 -.970E+01 0.280E+04   0.354E+00 0.567E+00 0.223E+01   0.152E-03 0.351E-03 -.198E-01
   0.992E+00 0.303E+01 -.131E+04   -.105E+01 -.354E+01 0.131E+04   0.277E+00 0.954E+00 -.707E+00   0.643E-04 0.543E-04 0.728E-03
   -.180E+02 -.267E+02 -.314E+03   0.194E+02 0.289E+02 0.311E+03   -.169E+01 -.252E+01 0.324E+01   -.314E-04 -.966E-04 -.214E-04
   0.940E+01 -.382E+02 -.340E+03   -.105E+02 0.424E+02 0.344E+03   0.102E+01 -.430E+01 -.320E+01   -.123E-04 0.118E-03 0.445E-03
   0.413E+02 0.269E+02 -.325E+03   -.458E+02 -.298E+02 0.325E+03   0.460E+01 0.300E+01 0.591E+00   -.757E-04 -.525E-04 0.191E-03
   -.373E+02 0.285E+02 -.334E+03   0.415E+02 -.316E+02 0.336E+03   -.422E+01 0.319E+01 -.169E+01   0.103E-03 -.569E-04 0.342E-03
   -.331E+00 -.172E+00 0.266E+04   0.319E+00 0.187E+00 -.266E+04   0.236E-01 0.228E-01 -.132E+00   0.136E-03 -.346E-04 0.959E-03
   0.495E-01 -.199E+01 -.260E+04   -.132E+00 0.208E+01 0.260E+04   0.110E+00 -.936E-01 0.930E+00   0.110E-03 -.135E-03 -.185E-01
   -.103E+01 -.390E+01 -.261E+04   0.113E+01 0.414E+01 0.261E+04   -.110E+00 -.249E+00 0.872E+00   -.140E-03 -.216E-03 -.180E-01
   -.921E-02 0.149E+01 -.261E+04   0.140E+00 -.164E+01 0.261E+04   -.159E+00 0.195E+00 0.949E+00   -.585E-04 0.127E-03 -.180E-01
   -.728E+01 0.328E+01 -.712E+03   0.743E+01 -.335E+01 0.711E+03   -.459E-02 -.669E-02 0.359E+00   -.115E-02 0.678E-03 -.237E-01
   0.991E-01 0.157E+00 0.295E+04   -.106E+00 -.173E+00 -.295E+04   0.176E-01 0.470E-01 -.670E+00   -.157E-03 -.824E-04 0.980E-03
   -.228E+00 -.728E+01 -.711E+03   0.259E+00 0.744E+01 0.710E+03   -.350E-01 -.225E-01 0.451E+00   0.694E-04 -.128E-02 -.237E-01
   0.119E+00 -.540E+01 0.114E+04   -.102E+00 0.562E+01 -.114E+04   -.239E-01 -.557E-01 -.355E+00   0.323E-03 -.103E-02 -.465E-03
   0.142E+00 0.967E+00 0.114E+04   -.137E+00 -.952E+00 -.114E+04   -.101E-01 -.220E-01 -.387E+00   -.324E-03 0.463E-03 -.186E-02
   0.563E+01 0.259E+01 0.115E+04   -.580E+01 -.268E+01 -.115E+04   0.947E-02 -.394E-02 -.311E+00   0.129E-02 0.868E-04 -.778E-03
   -.544E+01 0.247E+01 0.115E+04   0.563E+01 -.256E+01 -.115E+04   -.422E-01 0.612E-02 -.355E+00   -.128E-02 0.459E-03 -.104E-02
   -.704E-01 0.169E+00 0.296E+04   0.102E-01 -.139E+00 -.295E+04   0.791E-01 -.573E-01 -.748E+00   -.473E-04 -.293E-04 0.130E-02
   -.318E+00 -.557E-01 0.295E+04   0.344E+00 0.787E-01 -.295E+04   -.239E-01 -.531E-01 -.728E+00   0.532E-04 0.145E-03 0.972E-03
   0.211E+00 0.407E+00 -.719E+03   -.214E+00 -.418E+00 0.719E+03   0.600E-02 0.198E-01 0.176E+00   -.876E-04 0.285E-04 -.249E-01
   0.859E+01 0.417E+01 -.717E+03   -.871E+01 -.425E+01 0.716E+03   -.103E+00 -.170E-01 0.315E+00   0.116E-02 0.601E-03 -.238E-01
 -----------------------------------------------------------------------------------------------
   -.928E-01 -.584E+00 -.672E+00   -.551E-13 0.355E-14 0.216E-11   0.859E-01 0.598E+00 0.824E+00   0.101E-03 0.984E-04 -.169E+00
 
 
 POSITION                                       TOTAL-FORCE (eV/Angst)
 -----------------------------------------------------------------------------------
      2.78804      4.78639     19.04430        -0.021252     -0.111249      0.096547
      0.12873      0.18105     21.71150         0.219389      0.442538      0.286317
      0.49969      0.73473     20.77899        -0.206910     -0.342595      0.783064
      5.48250      1.03567     22.36792        -0.027434     -0.065737      0.416256
      7.55052      4.39920     21.58159         0.075522      0.082283     -0.092455
      3.73797      4.36845     22.05501         0.020580     -0.003001      0.203945
      2.79991      0.01433     12.11482         0.012021      0.037193      1.089461
      4.18330      2.39016     19.02411         0.027531     -0.000664     -0.160959
      1.41442      2.38854     19.04016        -0.014150     -0.017760     -0.237454
      5.57988      4.79240     19.03273        -0.028383      0.044104     -0.161745
      4.20120      4.01391     16.71910         0.149373     -0.073634     -0.154152
      0.02194      0.01568     12.11102         0.010817      0.030199     -0.123832
      5.59328      1.60728     16.71556        -0.003983      0.138256     -0.324775
      5.59249      3.22389     14.43970        -0.005827      0.167474     -0.529048
      2.81208      3.22162     14.43374        -0.005005     -0.007373      0.014477
      4.20159      0.81610     14.43144        -0.157947     -0.089956     -0.309812
      1.42151      0.81534     14.43376         0.150477     -0.086704     -0.332906
      4.19020      2.42278     12.10854         0.019195     -0.027542     -0.115721
      1.41005      2.42225     12.11334         0.002755     -0.030584     -0.131210
      2.81170      1.60170     16.72414         0.003301      0.007956      0.057635
      6.99103      4.01482     16.72949        -0.220069     -0.093205     -0.273635
 -----------------------------------------------------------------------------------
    total drift:                               -0.006789      0.014004     -0.016415


--------------------------------------------------------------------------------------------------------



  FREE ENERGIE OF THE ION-ELECTRON SYSTEM (eV)
  ---------------------------------------------------
  free  energy   TOTEN  =      -115.37345646 eV

  energy  without entropy=     -115.33325696  energy(sigma->0) =     -115.36005662
 


--------------------------------------------------------------------------------------------------------


    POTLOK:  cpu time    0.0257: real time    0.0261


--------------------------------------------------------------------------------------------------------


     LOOP+:  cpu time  560.7038: real time  562.3382
    4ORBIT:  cpu time    0.0000: real time    0.0000

 total amount of memory used by VASP MPI-rank0   164312. kBytes
=======================================================================

   base      :      30000. kBytes
   nonlr-proj:       2359. kBytes
   fftplans  :       2967. kBytes
   grid      :       6321. kBytes
   one-center:         93. kBytes
   wavefun   :     122572. kBytes
 
  
  
 General timing and accounting informations for this job:
 ========================================================
  
                  Total CPU time used (sec):      568.440
                            User time (sec):      566.759
                          System time (sec):        1.681
                         Elapsed time (sec):      570.319
  
                   Maximum memory used (kb):      208996.
                   Average memory used (kb):           0.
  
                          Minor page faults:        87185
                          Major page faults:            0
                 Voluntary context switches:          948
