 vasp.5.4.4.18Apr17-6-g9f103f2a35 (build Apr 28 2017 10:53:45) complex          
  
 executed on             LinuxIFC date 2019.07.18  17:39:00
 running on   16 total cores
 distrk:  each k-point on   16 cores,    1 groups
 distr:  one band on NCORES_PER_BAND=   4 cores,    4 groups


--------------------------------------------------------------------------------------------------------


 INCAR:
 POTCAR:    PAW_PBE Au 04Oct2007                  
 POTCAR:    PAW_PBE C 08Apr2002                   
 POTCAR:    PAW_PBE H 15Jun2001                   
 POTCAR:    PAW_PBE Ir 06Sep2000                  
 POTCAR:    PAW_PBE Pt 04Feb2005                  
 POTCAR:    PAW_PBE Au 04Oct2007                  
   VRHFIN =Au: s1d10                                                            
   LEXCH  = PE                                                                  
   EATOM  =   926.0867 eV,   68.0654 Ry                                         
                                                                                
   TITEL  = PAW_PBE Au 04Oct2007                                                
   LULTRA =        F    use ultrasoft PP ?                                      
   IUNSCR =        1    unscreen: 0-lin 1-nonlin 2-no                           
   RPACOR =    2.330    partial core radius                                     
   POMASS =  196.966; ZVAL   =   11.000    mass and valenz                      
   RCORE  =    2.500    outmost cutoff radius                                   
   RWIGS  =    2.840; RWIGS  =    1.503    wigner-seitz radius (au A)           
   ENMAX  =  229.943; ENMIN  =  172.457 eV                                      
   ICORE  =        3    local potential                                         
   LCOR   =        T    correct aug charges                                     
   LPAW   =        T    paw PP                                                  
   EAUG   =  356.670                                                            
   DEXC   =    0.000                                                            
   RMAX   =    2.562    core radius for proj-oper                               
   RAUG   =    1.300    factor for augmentation sphere                          
   RDEP   =    2.598    radius for radial grids                                 
   RDEPT  =    2.193    core radius for aug-charge                              
                                                                                
   Atomic configuration                                                         
   16 entries                                                                   
     n  l   j            E        occ.                                          
     1  0  0.50    -80748.5001   2.0000                                         
     2  0  0.50    -14244.7466   2.0000                                         
     2  1  1.50    -12310.9591   6.0000                                         
     3  0  0.50     -3362.1768   2.0000                                         
     3  1  1.50     -2801.5463   6.0000                                         
     3  2  2.50     -2203.8206  10.0000                                         
     4  0  0.50      -729.8168   2.0000                                         
     4  1  1.50      -546.0527   6.0000                                         
     4  2  2.50      -325.7302  10.0000                                         
     4  3  3.50       -81.1472  14.0000                                         
     5  0  0.50      -108.3201   2.0000                                         
     5  1  1.50       -59.7479   6.0000                                         
     5  2  2.50        -6.8783  10.0000                                         
     6  0  0.50        -5.7602   1.0000                                         
     6  1  1.50        -6.8029   0.0000                                         
     5  3  2.50        -1.3606   0.0000                                         
   Description                                                                  
     l       E           TYP  RCUT    TYP  RCUT                                 
     2     -6.8782861     23  2.500                                             
     2     -8.2388687     23  2.500                                             
     0     -5.7601759     23  2.500                                             
     0     -0.8493231     23  2.500                                             
     1     -2.7211652     23  2.500                                             
     1     27.2116520     23  2.500                                             
     3     -1.3605826     23  2.500                                             
  local pseudopotential read in
  partial core-charges read in
  partial kinetic energy density read in
  atomic valenz-charges read in
  non local Contribution for L=           2  read in
    real space projection operators read in
  non local Contribution for L=           2  read in
    real space projection operators read in
  non local Contribution for L=           0  read in
    real space projection operators read in
  non local Contribution for L=           0  read in
    real space projection operators read in
  non local Contribution for L=           1  read in
    real space projection operators read in
  non local Contribution for L=           1  read in
    real space projection operators read in
    PAW grid and wavefunctions read in
 
   number of l-projection  operators is LMAX  =           6
   number of lm-projection operators is LMMAX =          18
 
 POTCAR:    PAW_PBE C 08Apr2002                   
   VRHFIN =C: s2p2                                                              
   LEXCH  = PE                                                                  
   EATOM  =   147.1560 eV,   10.8157 Ry                                         
                                                                                
   TITEL  = PAW_PBE C 08Apr2002                                                 
   LULTRA =        F    use ultrasoft PP ?                                      
   IUNSCR =        1    unscreen: 0-lin 1-nonlin 2-no                           
   RPACOR =    1.200    partial core radius                                     
   POMASS =   12.011; ZVAL   =    4.000    mass and valenz                      
   RCORE  =    1.500    outmost cutoff radius                                   
   RWIGS  =    1.630; RWIGS  =    0.863    wigner-seitz radius (au A)           
   ENMAX  =  400.000; ENMIN  =  300.000 eV                                      
   ICORE  =        2    local potential                                         
   LCOR   =        T    correct aug charges                                     
   LPAW   =        T    paw PP                                                  
   EAUG   =  644.873                                                            
   DEXC   =    0.000                                                            
   RMAX   =    1.529    core radius for proj-oper                               
   RAUG   =    1.300    factor for augmentation sphere                          
   RDEP   =    1.501    radius for radial grids                                 
   RDEPT  =    1.300    core radius for aug-charge                              
                                                                                
   Atomic configuration                                                         
    4 entries                                                                   
     n  l   j            E        occ.                                          
     1  0  0.50      -273.3789   2.0000                                         
     2  0  0.50       -13.7508   2.0000                                         
     2  1  0.50        -5.2854   2.0000                                         
     3  2  1.50        -5.4423   0.0000                                         
   Description                                                                  
     l       E           TYP  RCUT    TYP  RCUT                                 
     0    -13.7508458     23  1.200                                             
     0     -8.2022199     23  1.200                                             
     1     -5.2854383     23  1.500                                             
     1     34.0145650     23  1.500                                             
     2     -5.4423304      7  1.500                                             
  local pseudopotential read in
  partial core-charges read in
  partial kinetic energy density read in
  atomic valenz-charges read in
  non local Contribution for L=           0  read in
    real space projection operators read in
  non local Contribution for L=           0  read in
    real space projection operators read in
  non local Contribution for L=           1  read in
    real space projection operators read in
  non local Contribution for L=           1  read in
    real space projection operators read in
    PAW grid and wavefunctions read in
 
   number of l-projection  operators is LMAX  =           4
   number of lm-projection operators is LMMAX =           8
 
 POTCAR:    PAW_PBE H 15Jun2001                   
   VRHFIN =H: ultrasoft test                                                    
   LEXCH  = PE                                                                  
   EATOM  =    12.4884 eV,    0.9179 Ry                                         
                                                                                
   TITEL  = PAW_PBE H 15Jun2001                                                 
   LULTRA =        F    use ultrasoft PP ?                                      
   IUNSCR =        0    unscreen: 0-lin 1-nonlin 2-no                           
   RPACOR =    0.000    partial core radius                                     
   POMASS =    1.000; ZVAL   =    1.000    mass and valenz                      
   RCORE  =    1.100    outmost cutoff radius                                   
   RWIGS  =    0.700; RWIGS  =    0.370    wigner-seitz radius (au A)           
   ENMAX  =  250.000; ENMIN  =  200.000 eV                                      
   RCLOC  =    0.701    cutoff for local pot                                    
   LCOR   =        T    correct aug charges                                     
   LPAW   =        T    paw PP                                                  
   EAUG   =  400.000                                                            
   RMAX   =    1.123    core radius for proj-oper                               
   RAUG   =    1.200    factor for augmentation sphere                          
   RDEP   =    1.112    radius for radial grids                                 
   RDEPT  =    0.926    core radius for aug-charge                              
                                                                                
   Atomic configuration                                                         
    2 entries                                                                   
     n  l   j            E        occ.                                          
     1  0  0.50        -6.4927   1.0000                                         
     2  1  0.50        -3.4015   0.0000                                         
   Description                                                                  
     l       E           TYP  RCUT    TYP  RCUT                                 
     0     -6.4927494     23  1.100                                             
     0      6.8029130     23  1.100                                             
     1     -4.0817478     23  1.100                                             
  local pseudopotential read in
  atomic valenz-charges read in
  non local Contribution for L=           0  read in
    real space projection operators read in
  non local Contribution for L=           0  read in
    real space projection operators read in
  non local Contribution for L=           1  read in
    real space projection operators read in
    PAW grid and wavefunctions read in
 
   number of l-projection  operators is LMAX  =           3
   number of lm-projection operators is LMMAX =           5
 
 POTCAR:    PAW_PBE Ir 06Sep2000                  
   VRHFIN =Ir: s1d8                                                             
   LEXCH  = PE                                                                  
   EATOM  =   560.1833 eV,   41.1723 Ry                                         
                                                                                
   TITEL  = PAW_PBE Ir 06Sep2000                                                
   LULTRA =        F    use ultrasoft PP ?                                      
   IUNSCR =        1    unscreen: 0-lin 1-nonlin 2-no                           
   RPACOR =    2.250    partial core radius                                     
   POMASS =  192.220; ZVAL   =    9.000    mass and valenz                      
   RCORE  =    2.600    outmost cutoff radius                                   
   RWIGS  =    2.690; RWIGS  =    1.423    wigner-seitz radius (au A)           
   ENMAX  =  210.864; ENMIN  =  158.148 eV                                      
   RCLOC  =    1.857    cutoff for local pot                                    
   LCOR   =        T    correct aug charges                                     
   LPAW   =        T    paw PP                                                  
   EAUG   =  318.962                                                            
   DEXC   =    0.000                                                            
   RMAX   =    2.667    core radius for proj-oper                               
   RAUG   =    1.300    factor for augmentation sphere                          
   RDEP   =    2.748    radius for radial grids                                 
   RDEPT  =    2.300    core radius for aug-charge                              
                                                                                
   Atomic configuration                                                         
   16 entries                                                                   
     n  l   j            E        occ.                                          
     1  0  0.50    -76100.0449   2.0000                                         
     2  0  0.50    -13308.1683   2.0000                                         
     2  1  1.50    -11558.0021   6.0000                                         
     3  0  0.50     -3110.7274   2.0000                                         
     3  1  1.50     -2599.2109   6.0000                                         
     3  2  2.50     -2037.1515  10.0000                                         
     4  0  0.50      -661.6001   2.0000                                         
     4  1  1.50      -493.8981   6.0000                                         
     4  2  2.50      -288.1909  10.0000                                         
     4  3  3.50       -59.5718  14.0000                                         
     5  0  0.50       -95.3879   2.0000                                         
     5  1  1.50       -52.2747   6.0000                                         
     5  2  2.50        -5.4180   8.0000                                         
     6  0  0.50        -5.5479   1.0000                                         
     6  1  1.50        -6.8029   0.0000                                         
     5  3  2.50        -1.3606   0.0000                                         
   Description                                                                  
     l       E           TYP  RCUT    TYP  RCUT                                 
     2     -5.4179967     23  2.600                                             
     2     -6.7785793     23  2.600                                             
     0     -5.5478636     23  2.600                                             
     0      2.2542272     23  2.600                                             
     1     -2.7211652     23  2.600                                             
     1     20.4087390     23  2.600                                             
  local pseudopotential read in
  partial core-charges read in
  partial kinetic energy density read in
  atomic valenz-charges read in
  non local Contribution for L=           2  read in
    real space projection operators read in
  non local Contribution for L=           2  read in
    real space projection operators read in
  non local Contribution for L=           0  read in
    real space projection operators read in
  non local Contribution for L=           0  read in
    real space projection operators read in
  non local Contribution for L=           1  read in
    real space projection operators read in
  non local Contribution for L=           1  read in
    real space projection operators read in
    PAW grid and wavefunctions read in
 
   number of l-projection  operators is LMAX  =           6
   number of lm-projection operators is LMMAX =          18
 
 POTCAR:    PAW_PBE Pt 04Feb2005                  
   VRHFIN =Pt: s1d9                                                             
   LEXCH  = PE                                                                  
   EATOM  =   729.1176 eV,   53.5886 Ry                                         
                                                                                
   TITEL  = PAW_PBE Pt 04Feb2005                                                
   LULTRA =        F    use ultrasoft PP ?                                      
   IUNSCR =        1    unscreen: 0-lin 1-nonlin 2-no                           
   RPACOR =    2.330    partial core radius                                     
   POMASS =  195.080; ZVAL   =   10.000    mass and valenz                      
   RCORE  =    2.600    outmost cutoff radius                                   
   RWIGS  =    2.750; RWIGS  =    1.455    wigner-seitz radius (au A)           
   ENMAX  =  230.283; ENMIN  =  172.712 eV                                      
   ICORE  =        3    local potential                                         
   LCOR   =        T    correct aug charges                                     
   LPAW   =        T    paw PP                                                  
   EAUG   =  358.966                                                            
   DEXC   =    0.000                                                            
   RMAX   =    2.658    core radius for proj-oper                               
   RAUG   =    1.300    factor for augmentation sphere                          
   RDEP   =    2.761    radius for radial grids                                 
   RDEPT  =    2.203    core radius for aug-charge                              
                                                                                
   Atomic configuration                                                         
   16 entries                                                                   
     n  l   j            E        occ.                                          
     1  0  0.50    -78401.1885   2.0000                                         
     2  0  0.50    -13770.7750   2.0000                                         
     2  1  1.50    -11931.0468   6.0000                                         
     3  0  0.50     -3234.7234   2.0000                                         
     3  1  1.50     -2699.2216   6.0000                                         
     3  2  2.50     -2119.5714  10.0000                                         
     4  0  0.50      -695.1528   2.0000                                         
     4  1  1.50      -519.6034   6.0000                                         
     4  2  2.50      -306.6786  10.0000                                         
     4  3  3.50       -70.1041  14.0000                                         
     5  0  0.50      -101.7747   2.0000                                         
     5  1  1.50       -55.9873   6.0000                                         
     5  2  2.50        -6.1423   9.0000                                         
     6  0  0.50        -5.6573   1.0000                                         
     6  1  1.50        -6.8029   0.0000                                         
     5  3  2.50        -1.3606   0.0000                                         
   Description                                                                  
     l       E           TYP  RCUT    TYP  RCUT                                 
     2     -6.1423404     23  2.500                                             
     2     -7.5029230     23  2.500                                             
     0     -5.6573207     23  2.500                                             
     0      0.7416693     23  2.500                                             
     1     -2.7211652     23  2.600                                             
     1     20.4087390     23  2.600                                             
     3     -1.3605826     23  2.500                                             
  local pseudopotential read in
  partial core-charges read in
  partial kinetic energy density read in
  atomic valenz-charges read in
  non local Contribution for L=           2  read in
    real space projection operators read in
  non local Contribution for L=           2  read in
    real space projection operators read in
  non local Contribution for L=           0  read in
    real space projection operators read in
  non local Contribution for L=           0  read in
    real space projection operators read in
  non local Contribution for L=           1  read in
    real space projection operators read in
  non local Contribution for L=           1  read in
    real space projection operators read in
    PAW grid and wavefunctions read in
 
   number of l-projection  operators is LMAX  =           6
   number of lm-projection operators is LMMAX =          18
 
 Optimization of the real space projectors (new method)

 maximal supplied QI-value         = 15.12
 optimisation between [QCUT,QGAM] = [  9.52, 19.05] = [ 25.40,101.61] Ry 
 Optimized for a Real-space Cutoff    1.57 Angstroem

   l    n(q)    QCUT    max X(q) W(low)/X(q) W(high)/X(q)  e(spline) 
   2      8     9.524    60.898    0.38E-03    0.43E-04    0.84E-07
   2      8     9.524    58.894    0.38E-03    0.47E-04    0.88E-07
   0      9     9.524   109.617    0.60E-04    0.64E-04    0.80E-07
   0      9     9.524    75.026    0.59E-04    0.62E-04    0.78E-07
   1      8     9.524    16.344    0.99E-04    0.18E-03    0.87E-07
   1      8     9.524    10.160    0.78E-04    0.15E-03    0.74E-07
 Optimization of the real space projectors (new method)

 maximal supplied QI-value         = 25.13
 optimisation between [QCUT,QGAM] = [  9.55, 19.10] = [ 25.54,102.17] Ry 
 Optimized for a Real-space Cutoff    1.39 Angstroem

   l    n(q)    QCUT    max X(q) W(low)/X(q) W(high)/X(q)  e(spline) 
   0      8     9.551   115.676    0.39E-03    0.54E-03    0.29E-06
   0      8     9.551    87.132    0.39E-03    0.54E-03    0.28E-06
   1      7     9.551     4.429    0.35E-03    0.51E-04    0.29E-06
   1      7     9.551     2.733    0.22E-03    0.42E-04    0.31E-06
 Optimization of the real space projectors (new method)

 maximal supplied QI-value         = 34.20
 optimisation between [QCUT,QGAM] = [  9.58, 19.15] = [ 25.68,102.74] Ry 
 Optimized for a Real-space Cutoff    1.31 Angstroem

   l    n(q)    QCUT    max X(q) W(low)/X(q) W(high)/X(q)  e(spline) 
   0      7     9.577    19.460    0.33E-03    0.12E-03    0.35E-06
   0      7     9.577    12.209    0.33E-03    0.11E-03    0.33E-06
   1      7     9.577     4.655    0.39E-03    0.14E-02    0.33E-06
 Optimization of the real space projectors (new method)

 maximal supplied QI-value         = 14.36
 optimisation between [QCUT,QGAM] = [  9.48, 19.10] = [ 25.16,102.17] Ry 
 Optimized for a Real-space Cutoff    1.57 Angstroem

   l    n(q)    QCUT    max X(q) W(low)/X(q) W(high)/X(q)  e(spline) 
   2      8     9.479   134.116    0.18E-03    0.75E-03    0.26E-06
   2      8     9.479   130.192    0.18E-03    0.75E-03    0.27E-06
   0      9     9.479    60.310    0.39E-03    0.24E-03    0.63E-07
   0      9     9.479    39.218    0.36E-03    0.22E-03    0.59E-07
   1      8     9.479    18.439    0.20E-03    0.15E-03    0.16E-06
   1      8     9.479    12.760    0.16E-03    0.11E-03    0.13E-06
 Optimization of the real space projectors (new method)

 maximal supplied QI-value         = 14.36
 optimisation between [QCUT,QGAM] = [  9.48, 19.10] = [ 25.16,102.17] Ry 
 Optimized for a Real-space Cutoff    1.57 Angstroem

   l    n(q)    QCUT    max X(q) W(low)/X(q) W(high)/X(q)  e(spline) 
   2      8     9.479    66.195    0.35E-03    0.53E-04    0.87E-07
   2      8     9.479    64.643    0.35E-03    0.57E-04    0.91E-07
   0      9     9.479    95.520    0.50E-04    0.62E-04    0.81E-07
   0      9     9.479    63.403    0.49E-04    0.60E-04    0.78E-07
   1      8     9.479    19.961    0.10E-03    0.87E-04    0.11E-06
   1      8     9.479    13.289    0.88E-04    0.71E-04    0.97E-07
  PAW_PBE Au 04Oct2007                  :
 energy of atom  1       EATOM= -926.0867
 kinetic energy error for atom=    0.0152 (will be added to EATOM!!)
  PAW_PBE C 08Apr2002                   :
 energy of atom  2       EATOM= -147.1560
 kinetic energy error for atom=    0.0854 (will be added to EATOM!!)
  PAW_PBE H 15Jun2001                   :
 energy of atom  3       EATOM=  -12.4884
 kinetic energy error for atom=    0.0203 (will be added to EATOM!!)
  PAW_PBE Ir 06Sep2000                  :
 energy of atom  4       EATOM= -560.1833
 kinetic energy error for atom=    0.0056 (will be added to EATOM!!)
  PAW_PBE Pt 04Feb2005                  :
 energy of atom  5       EATOM= -729.1176
 kinetic energy error for atom=    0.0144 (will be added to EATOM!!)
 
 
 POSCAR: Au  C  H Ir Pt                          
  positions in cartesian coordinates
  No initial velocities read in
 exchange correlation table for  LEXCH =        8
   RHO(1)=    0.500       N(1)  =     2000
   RHO(2)=  100.500       N(2)  =     4000
 


--------------------------------------------------------------------------------------------------------


 ion  position               nearest neighbor table
   1  0.506  0.991  0.619-  10 2.75  21 2.77  11 2.77   8 2.77   9 2.78   9 2.78   8 2.79  10 2.82
                            20 2.82
   2  0.005  0.018  0.698-   6 1.10   5 1.10   4 1.10   3 1.45  10 2.25
   3  0.011  0.199  0.665-   2 1.45  10 1.70   9 2.10
   4  0.886  0.215  0.716-   2 1.10
   5  0.897  0.899  0.702-   2 1.10
   6  0.220  0.903  0.710-   2 1.10
   7  0.502  0.004  0.394-  12 2.78  19 2.78  18 2.78  18 2.78  19 2.78  12 2.78  17 2.82  14 2.82
                            16 2.83
   8  0.502  0.495  0.618-  20 2.77   9 2.77   1 2.77  10 2.78   1 2.79   9 2.79  10 2.80  13 2.80
                            11 2.80
   9  0.005  0.491  0.621-   3 2.10  10 2.76   8 2.77   1 2.78   1 2.78   8 2.79  10 2.80  13 2.82
                            21 2.84  20 2.86
  10  0.001  0.990  0.626-   3 1.70   2 2.25   1 2.75   9 2.76   8 2.78   8 2.80   9 2.80   1 2.82
                            21 2.86  11 2.98  13 3.00
  11  0.338  0.835  0.545-  21 2.74   1 2.77  20 2.77  13 2.77  13 2.79  15 2.79  20 2.79   8 2.80
                            14 2.81  17 2.81  21 2.82  10 2.98
  12  0.003  0.004  0.394-  18 2.77   7 2.78  19 2.78  19 2.78   7 2.78  18 2.78  16 2.82  17 2.83
                            15 2.83
  13  0.841  0.334  0.544-  21 2.76  11 2.77  20 2.77  20 2.79  11 2.79  17 2.79  16 2.80   8 2.80
                            21 2.80  14 2.81   9 2.82  10 3.00
  14  0.672  0.671  0.470-  15 2.78  16 2.78  17 2.78  17 2.78  16 2.78  15 2.78  11 2.81  13 2.81
                            19 2.82   7 2.82  18 2.85  21 2.86
  15  0.171  0.671  0.470-  14 2.78  16 2.78  17 2.78  17 2.78  16 2.78  14 2.78  11 2.79  20 2.80
                            21 2.82  12 2.83  18 2.84  19 2.84
  16  0.672  0.171  0.470-  15 2.78  17 2.78  14 2.78  14 2.78  17 2.78  15 2.78  20 2.80  13 2.80
                            12 2.82   7 2.83  18 2.84  21 2.86
  17  0.172  0.171  0.470-  16 2.78  15 2.78  14 2.78  14 2.78  15 2.78  16 2.78  20 2.78  13 2.79
                            11 2.81   7 2.82  19 2.83  12 2.83
  18  0.501  0.504  0.394-  19 2.77  12 2.77   7 2.78   7 2.78  12 2.78  19 2.79  16 2.84  15 2.84
                            14 2.85
  19  0.003  0.504  0.394-  18 2.77   7 2.78  12 2.78  12 2.78   7 2.78  18 2.79  14 2.82  17 2.83
                            15 2.84
  20  0.339  0.332  0.544-   8 2.77  11 2.77  13 2.77  21 2.77  17 2.78  21 2.79  13 2.79  11 2.79
                            16 2.80  15 2.80   1 2.82   9 2.86
  21  0.845  0.835  0.546-  11 2.74  13 2.76   1 2.77  20 2.77  20 2.79  13 2.80  11 2.82  15 2.82
                             9 2.84  16 2.86  14 2.86  10 2.86
 
  LATTYP: Found a hexagonal cell.
 ALAT       =     5.5578593001
 C/A-ratio  =     5.5429542221
  
  Lattice vectors:
  
 A1 = (   2.7789296501,  -4.8132473446,   0.0000000000)
 A2 = (  -5.5578593001,   0.0000000000,   0.0000000000)
 A3 = (   0.0000000000,   0.0000000000, -30.8069596737)


Analysis of symmetry for initial positions (statically):
=====================================================================
 Subroutine PRICEL returns:
 Original cell was already a primitive cell.
 

 Routine SETGRP: Setting up the symmetry group for a 
 hexagonal supercell.


 Subroutine GETGRP returns: Found  1 space group operations
 (whereof  1 operations were pure point group operations)
 out of a pool of 24 trial point group operations.


The static configuration has the point symmetry C_1 .


Analysis of symmetry for dynamics (positions and initial velocities):
=====================================================================
 Subroutine PRICEL returns:
 Original cell was already a primitive cell.
 

 Routine SETGRP: Setting up the symmetry group for a 
 hexagonal supercell.


 Subroutine GETGRP returns: Found  1 space group operations
 (whereof  1 operations were pure point group operations)
 out of a pool of 24 trial point group operations.


The dynamic configuration has the point symmetry C_1 .


 Subroutine INISYM returns: Found  1 space group operations
 (whereof  1 operations are pure point group operations),
 and found     1 'primitive' translations

 
 
 KPOINTS: 0.0.Ir1.Au13                            

Automatic generation of k-mesh.
Space group operators:
 irot       det(A)        alpha          n_x          n_y          n_z        tau_x        tau_y        tau_z
    1     1.000000     0.000001     1.000000     0.000000     0.000000     0.000000     0.000000     0.000000
 
 Subroutine IBZKPT returns following result:
 ===========================================
 
 Found     96 irreducible k-points:
 
 Following reciprocal coordinates:
            Coordinates               Weight
  0.062500  0.062500  0.000000     16.000000
  0.000000  0.062500  0.000000     16.000000
 -0.062500  0.000000  0.000000     16.000000
  0.187500  0.062500  0.000000     16.000000
  0.125000  0.187500  0.000000     16.000000
 -0.062500  0.125000  0.000000     16.000000
  0.125000 -0.062500  0.000000     16.000000
 -0.062500 -0.187500  0.000000     16.000000
 -0.187500 -0.125000  0.000000     16.000000
  0.312500  0.062500  0.000000     16.000000
  0.250000  0.312500  0.000000     16.000000
 -0.062500  0.250000  0.000000     16.000000
  0.250000 -0.062500  0.000000     16.000000
 -0.062500 -0.312500  0.000000     16.000000
 -0.312500 -0.250000  0.000000     16.000000
  0.437500  0.062500  0.000000     16.000000
  0.375000  0.437500  0.000000     16.000000
 -0.062500  0.375000  0.000000     16.000000
  0.375000 -0.062500  0.000000     16.000000
 -0.062500 -0.437500  0.000000     16.000000
 -0.437500 -0.375000  0.000000     16.000000
 -0.437500  0.062500  0.000000     16.000000
  0.500000 -0.437500  0.000000     16.000000
 -0.062500  0.500000  0.000000     16.000000
  0.500000 -0.062500  0.000000     16.000000
 -0.062500  0.437500  0.000000     16.000000
  0.437500  0.500000  0.000000     16.000000
 -0.312500  0.062500  0.000000     16.000000
 -0.375000 -0.312500  0.000000     16.000000
 -0.062500 -0.375000  0.000000     16.000000
 -0.375000 -0.062500  0.000000     16.000000
 -0.062500  0.312500  0.000000     16.000000
  0.312500  0.375000  0.000000     16.000000
 -0.187500  0.062500  0.000000     16.000000
 -0.250000 -0.187500  0.000000     16.000000
 -0.062500 -0.250000  0.000000     16.000000
 -0.250000 -0.062500  0.000000     16.000000
 -0.062500  0.187500  0.000000     16.000000
  0.187500  0.250000  0.000000     16.000000
 -0.062500  0.062500  0.000000     16.000000
 -0.125000 -0.062500  0.000000     16.000000
 -0.062500 -0.125000  0.000000     16.000000
  0.187500  0.187500  0.000000     16.000000
  0.000000  0.187500  0.000000     16.000000
 -0.187500  0.000000  0.000000     16.000000
  0.312500  0.187500  0.000000     16.000000
  0.125000  0.312500  0.000000     16.000000
 -0.187500  0.125000  0.000000     16.000000
  0.125000 -0.187500  0.000000     16.000000
 -0.187500 -0.312500  0.000000     16.000000
 -0.312500 -0.125000  0.000000     16.000000
  0.437500  0.187500  0.000000     16.000000
  0.250000  0.437500  0.000000     16.000000
 -0.187500  0.250000  0.000000     16.000000
  0.250000 -0.187500  0.000000     16.000000
 -0.187500 -0.437500  0.000000     16.000000
 -0.437500 -0.250000  0.000000     16.000000
 -0.437500  0.187500  0.000000     16.000000
  0.375000 -0.437500  0.000000     16.000000
 -0.187500  0.375000  0.000000     16.000000
  0.375000 -0.187500  0.000000     16.000000
 -0.187500  0.437500  0.000000     16.000000
  0.437500 -0.375000  0.000000     16.000000
 -0.312500  0.187500  0.000000     16.000000
  0.500000 -0.312500  0.000000     16.000000
 -0.187500  0.500000  0.000000     16.000000
  0.500000 -0.187500  0.000000     16.000000
 -0.187500  0.312500  0.000000     16.000000
  0.312500  0.500000  0.000000     16.000000
 -0.187500  0.187500  0.000000     16.000000
 -0.375000 -0.187500  0.000000     16.000000
 -0.187500 -0.375000  0.000000     16.000000
  0.312500  0.312500  0.000000     16.000000
  0.000000  0.312500  0.000000     16.000000
 -0.312500  0.000000  0.000000     16.000000
  0.437500  0.312500  0.000000     16.000000
  0.125000  0.437500  0.000000     16.000000
 -0.312500  0.125000  0.000000     16.000000
  0.125000 -0.312500  0.000000     16.000000
 -0.312500 -0.437500  0.000000     16.000000
 -0.437500 -0.125000  0.000000     16.000000
 -0.437500  0.312500  0.000000     16.000000
  0.250000 -0.437500  0.000000     16.000000
 -0.312500  0.250000  0.000000     16.000000
  0.250000 -0.312500  0.000000     16.000000
 -0.312500  0.437500  0.000000     16.000000
  0.437500 -0.250000  0.000000     16.000000
 -0.312500  0.312500  0.000000     16.000000
  0.375000 -0.312500  0.000000     16.000000
 -0.312500  0.375000  0.000000     16.000000
  0.437500  0.437500  0.000000     16.000000
  0.000000  0.437500  0.000000     16.000000
 -0.437500 -0.000000  0.000000     16.000000
 -0.437500  0.437500  0.000000     16.000000
  0.125000 -0.437500  0.000000     16.000000
 -0.437500  0.125000  0.000000     16.000000
 
 Following cartesian coordinates:
            Coordinates               Weight
  0.011245  0.006492  0.000000     16.000000
  0.000000  0.012985  0.000000     16.000000
 -0.011245  0.006492  0.000000     16.000000
  0.033736 -0.006492  0.000000     16.000000
  0.022491  0.025970  0.000000     16.000000
 -0.011245  0.032462  0.000000     16.000000
  0.022491 -0.025970  0.000000     16.000000
 -0.011245 -0.032462  0.000000     16.000000
 -0.033736 -0.006492  0.000000     16.000000
  0.056227 -0.019477  0.000000     16.000000
  0.044981  0.038955  0.000000     16.000000
 -0.011245  0.058432  0.000000     16.000000
  0.044981 -0.038955  0.000000     16.000000
 -0.011245 -0.058432  0.000000     16.000000
 -0.056227 -0.019477  0.000000     16.000000
  0.078717 -0.032462  0.000000     16.000000
  0.067472  0.051940  0.000000     16.000000
 -0.011245  0.084402  0.000000     16.000000
  0.067472 -0.051940  0.000000     16.000000
 -0.011245 -0.084402  0.000000     16.000000
 -0.078717 -0.032462  0.000000     16.000000
 -0.078717  0.058432  0.000000     16.000000
  0.089963 -0.142835  0.000000     16.000000
 -0.011245  0.110372  0.000000     16.000000
  0.089963 -0.064925  0.000000     16.000000
 -0.011245  0.097387  0.000000     16.000000
  0.078717  0.058432  0.000000     16.000000
 -0.056227  0.045447  0.000000     16.000000
 -0.067472 -0.025970  0.000000     16.000000
 -0.011245 -0.071417  0.000000     16.000000
 -0.067472  0.025970  0.000000     16.000000
 -0.011245  0.071417  0.000000     16.000000
  0.056227  0.045447  0.000000     16.000000
 -0.033736  0.032462  0.000000     16.000000
 -0.044981 -0.012985  0.000000     16.000000
 -0.011245 -0.045447  0.000000     16.000000
 -0.044981  0.012985  0.000000     16.000000
 -0.011245  0.045447  0.000000     16.000000
  0.033736  0.032462  0.000000     16.000000
 -0.011245  0.019477  0.000000     16.000000
 -0.022491  0.000000  0.000000     16.000000
 -0.011245 -0.019477  0.000000     16.000000
  0.033736  0.019477  0.000000     16.000000
  0.000000  0.038955  0.000000     16.000000
 -0.033736  0.019477  0.000000     16.000000
  0.056227  0.006492  0.000000     16.000000
  0.022491  0.051940  0.000000     16.000000
 -0.033736  0.045447  0.000000     16.000000
  0.022491 -0.051940  0.000000     16.000000
 -0.033736 -0.045447  0.000000     16.000000
 -0.056227  0.006492  0.000000     16.000000
  0.078717 -0.006492  0.000000     16.000000
  0.044981  0.064925  0.000000     16.000000
 -0.033736  0.071417  0.000000     16.000000
  0.044981 -0.064925  0.000000     16.000000
 -0.033736 -0.071417  0.000000     16.000000
 -0.078717 -0.006492  0.000000     16.000000
 -0.078717  0.084402  0.000000     16.000000
  0.067472 -0.129850  0.000000     16.000000
 -0.033736  0.097387  0.000000     16.000000
  0.067472 -0.077910  0.000000     16.000000
 -0.033736  0.110372  0.000000     16.000000
  0.078717 -0.123357  0.000000     16.000000
 -0.056227  0.071417  0.000000     16.000000
  0.089963 -0.116865  0.000000     16.000000
 -0.033736  0.123357  0.000000     16.000000
  0.089963 -0.090895  0.000000     16.000000
 -0.033736  0.084402  0.000000     16.000000
  0.056227  0.071417  0.000000     16.000000
 -0.033736  0.058432  0.000000     16.000000
 -0.067472  0.000000  0.000000     16.000000
 -0.033736 -0.058432  0.000000     16.000000
  0.056227  0.032462  0.000000     16.000000
  0.000000  0.064925  0.000000     16.000000
 -0.056227  0.032462  0.000000     16.000000
  0.078717  0.019477  0.000000     16.000000
  0.022491  0.077910  0.000000     16.000000
 -0.056227  0.058432  0.000000     16.000000
  0.022491 -0.077910  0.000000     16.000000
 -0.056227 -0.058432  0.000000     16.000000
 -0.078717  0.019477  0.000000     16.000000
 -0.078717  0.110372  0.000000     16.000000
  0.044981 -0.116865  0.000000     16.000000
 -0.056227  0.084402  0.000000     16.000000
  0.044981 -0.090895  0.000000     16.000000
 -0.056227  0.123357  0.000000     16.000000
  0.078717 -0.097387  0.000000     16.000000
 -0.056227  0.097387  0.000000     16.000000
  0.067472 -0.103880  0.000000     16.000000
 -0.056227  0.110372  0.000000     16.000000
  0.078717  0.045447  0.000000     16.000000
  0.000000  0.090895  0.000000     16.000000
 -0.078717  0.045447  0.000000     16.000000
 -0.078717  0.136342  0.000000     16.000000
  0.022491 -0.103880  0.000000     16.000000
 -0.078717  0.071417  0.000000     16.000000
 


--------------------------------------------------------------------------------------------------------




 Dimension of arrays:
   k-points           NKPTS =     96   k-points in BZ     NKDIM =     96   number of bands    NBANDS=    100
   number of dos      NEDOS =    301   number of ions     NIONS =     21
   non local maximal  LDIM  =      6   non local SUM 2l+1 LMDIM =     18
   total plane-waves  NPLWV = 112896
   max r-space proj   IRMAX =   2252   max aug-charges    IRDMAX=  10104
   dimension x,y,z NGX =    28 NGY =   28 NGZ =  144
   dimension x,y,z NGXF=    56 NGYF=   56 NGZF=  288
   support grid    NGXF=    56 NGYF=   56 NGZF=  288
   ions per type =               1   1   4   1  14
   NGX,Y,Z   is equivalent  to a cutoff of   8.38,  8.38,  7.77 a.u.
   NGXF,Y,Z  is equivalent  to a cutoff of  16.75, 16.75, 15.54 a.u.

 SYSTEM =  0.0.Ir1.Au13                            
 POSCAR =  Au  C  H Ir Pt                          

 Startparameter for this run:
   NWRITE =      2    write-flag & timer
   PREC   = normal    normal or accurate (medium, high low for compatibility)
   ISTART =      0    job   : 0-new  1-cont  2-samecut
   ICHARG =      2    charge: 1-file 2-atom 10-const
   ISPIN  =      1    spin polarized calculation?
   LNONCOLLINEAR =      F non collinear calculations
   LSORBIT =      F    spin-orbit coupling
   INIWAV =      1    electr: 0-lowe 1-rand  2-diag
   LASPH  =      F    aspherical Exc in radial PAW
   METAGGA=      F    non-selfconsistent MetaGGA calc.

 Electronic Relaxation 1
   ENCUT  =  350.0 eV  25.72 Ry    5.07 a.u.   8.48  8.48 46.99*2*pi/ulx,y,z
   ENINI  =  350.0     initial cutoff
   ENAUG  =  644.9 eV  augmentation charge cutoff
   NELM   =   1000;   NELMIN=  5; NELMDL= -5     # of ELM steps 
   EDIFF  = 0.1E-04   stopping-criterion for ELM
   LREAL  =      T    real-space projection
   NLSPLINE    = F    spline interpolate recip. space projectors
   LCOMPAT=      F    compatible to vasp.4.4
   GGA_COMPAT  = T    GGA compatible to vasp.4.4-vasp.4.6
   LMAXPAW     = -100 max onsite density
   LMAXMIX     =    2 max onsite mixed and CHGCAR
   VOSKOWN=      0    Vosko Wilk Nusair interpolation
   ROPT   =   -0.00050  -0.00050  -0.00050  -0.00050
   ROPT   =   -0.00050
 Ionic relaxation
   EDIFFG = 0.1E-03   stopping-criterion for IOM
   NSW    =      0    number of steps for IOM
   NBLOCK =      1;   KBLOCK =      1    inner block; outer block 
   IBRION =     -1    ionic relax: 0-MD 1-quasi-New 2-CG
   NFREE  =      0    steps in history (QN), initial steepest desc. (CG)
   ISIF   =      2    stress and relaxation
   IWAVPR =     10    prediction:  0-non 1-charg 2-wave 3-comb
   ISYM   =      2    0-nonsym 1-usesym 2-fastsym
   LCORR  =      T    Harris-Foulkes like correction to forces

   POTIM  = 0.5000    time-step for ionic-motion
   TEIN   =    0.0    initial temperature
   TEBEG  =    0.0;   TEEND  =   0.0 temperature during run
   SMASS  =  -3.00    Nose mass-parameter (am)
   estimated Nose-frequenzy (Omega)   =  0.10E-29 period in steps =****** mass=  -0.706E-27a.u.
   SCALEE = 1.0000    scale energy and forces
   NPACO  =    256;   APACO  = 16.0  distance and # of slots for P.C.
   PSTRESS=    0.0 pullay stress

  Mass of Ions in am
   POMASS = 196.97 12.01  1.00192.22195.08
  Ionic Valenz
   ZVAL   =  11.00  4.00  1.00  9.00 10.00
  Atomic Wigner-Seitz radii
   RWIGS  =  -1.00 -1.00 -1.00 -1.00 -1.00
  virtual crystal weights 
   VCA    =   1.00  1.00  1.00  1.00  1.00
   NELECT =     168.0000    total number of electrons
   NUPDOWN=      -1.0000    fix difference up-down

 DOS related values:
   EMIN   =  10.00;   EMAX   =-10.00  energy-range for DOS
   EFERMI =   0.00
   ISMEAR =     1;   SIGMA  =   0.20  broadening in eV -4-tet -1-fermi 0-gaus

 Electronic relaxation 2 (details)
   IALGO  =     38    algorithm
   LDIAG  =      T    sub-space diagonalisation (order eigenvalues)
   LSUBROT=      F    optimize rotation matrix (better conditioning)
   TURBO    =      0    0=normal 1=particle mesh
   IRESTART =      0    0=no restart 2=restart with 2 vectors
   NREBOOT  =      0    no. of reboots
   NMIN     =      0    reboot dimension
   EREF     =   0.00    reference energy to select bands
   IMIX   =      4    mixing-type and parameters
     AMIX     =   0.40;   BMIX     =  1.00
     AMIX_MAG =   1.60;   BMIX_MAG =  1.00
     AMIN     =   0.10
     WC   =   100.;   INIMIX=   1;  MIXPRE=   1;  MAXMIX= -45

 Intra band minimization:
   WEIMIN = 0.0000     energy-eigenvalue tresh-hold
   EBREAK =  0.25E-07  absolut break condition
   DEPER  =   0.30     relativ break condition  

   TIME   =   0.40     timestep for ELM

  volume/ion in A,a.u.               =      39.24       264.83
  Fermi-wavevector in a.u.,A,eV,Ry     =   0.963488  1.820729 12.630418  0.928310
  Thomas-Fermi vector in A             =   2.093038
 
 Write flags
   LWAVE        =      F    write WAVECAR
   LDOWNSAMPLE  =      F    k-point downsampling of WAVECAR
   LCHARG       =      F    write CHGCAR
   LVTOT        =      F    write LOCPOT, total local potential
   LVHAR        =      F    write LOCPOT, Hartree potential only
   LELF         =      F    write electronic localiz. function (ELF)
   LORBIT       =      0    0 simple, 1 ext, 2 COOP (PROOUT), +10 PAW based schemes


 Dipole corrections
   LMONO  =      F    monopole corrections only (constant potential shift)
   LDIPOL =      F    correct potential (dipole corrections)
   IDIPOL =      3    1-x, 2-y, 3-z, 4-all directions 
   EPSILON=  1.0000000 bulk dielectric constant

 Exchange correlation treatment:
   GGA     =    --    GGA type
   LEXCH   =     8    internal setting for exchange type
   VOSKOWN=      0    Vosko Wilk Nusair interpolation
   LHFCALC =     F    Hartree Fock is set to
   LHFONE  =     F    Hartree Fock one center treatment
   AEXX    =    0.0000 exact exchange contribution

 Linear response parameters
   LEPSILON=     F    determine dielectric tensor
   LRPA    =     F    only Hartree local field effects (RPA)
   LNABLA  =     F    use nabla operator in PAW spheres
   LVEL    =     F    velocity operator in full k-point grid
   LINTERFAST=   F  fast interpolation
   KINTER  =     0    interpolate to denser k-point grid
   CSHIFT  =0.1000    complex shift for real part using Kramers Kronig
   OMEGAMAX=  -1.0    maximum frequency
   DEG_THRESHOLD= 0.2000000E-02 threshold for treating states as degnerate
   RTIME   =   -0.100 relaxation time in fs
  (WPLASMAI=    0.000 imaginary part of plasma frequency in eV, 0.658/RTIME)
   DFIELD  = 0.0000000 0.0000000 0.0000000 field for delta impulse in time
 
 Orbital magnetization related:
   ORBITALMAG=     F  switch on orbital magnetization
   LCHIMAG   =     F  perturbation theory with respect to B field
   DQ        =  0.001000  dq finite difference perturbation B field
   LLRAUG    =     F  two centre corrections for induced B field



--------------------------------------------------------------------------------------------------------


 Static calculation
 charge density and potential will be updated during run
 non-spin polarized calculation
 Variant of blocked Davidson
 Davidson routine will perform the subspace rotation
 perform sub-space diagonalisation
    after iterative eigenvector-optimisation
 modified Broyden-mixing scheme, WC =      100.0
 initial mixing is a Kerker type mixing with AMIX =  0.4000 and BMIX =      1.0000
 Hartree-type preconditioning will be used
 using additional bands           16
 real space projection scheme for non local part
 use partial core corrections
 calculate Harris-corrections to forces 
   (improved forces if not selfconsistent)
 use gradient corrections 
 use of overlap-Matrix (Vanderbilt PP)
 Methfessel and Paxton  Order N= 1 SIGMA  =   0.20


--------------------------------------------------------------------------------------------------------


  energy-cutoff  :      350.00
  volume of cell :      824.13
      direct lattice vectors                 reciprocal lattice vectors
     5.557859300  0.000000000  0.000000000     0.179925390 -0.103879972  0.000000000
     2.778929650  4.813247345  0.000000000     0.000000000  0.207759944  0.000000000
     0.000000000  0.000000000 30.806959674     0.000000000  0.000000000  0.032460198

  length of vectors
     5.557859300  5.557859300 30.806959674     0.207759944  0.207759944  0.032460198


 
 k-points in units of 2pi/SCALE and weight: 0.0.Ir1.Au13                            
   0.01124534  0.00649250  0.00000000       0.010
   0.00000000  0.01298500  0.00000000       0.010
  -0.01124534  0.00649250  0.00000000       0.010
   0.03373601 -0.00649250  0.00000000       0.010
   0.02249067  0.02596999  0.00000000       0.010
  -0.01124534  0.03246249  0.00000000       0.010
   0.02249067 -0.02596999  0.00000000       0.010
  -0.01124534 -0.03246249  0.00000000       0.010
  -0.03373601 -0.00649250  0.00000000       0.010
   0.05622668 -0.01947749  0.00000000       0.010
   0.04498135  0.03895499  0.00000000       0.010
  -0.01124534  0.05843248  0.00000000       0.010
   0.04498135 -0.03895499  0.00000000       0.010
  -0.01124534 -0.05843248  0.00000000       0.010
  -0.05622668 -0.01947749  0.00000000       0.010
   0.07871736 -0.03246249  0.00000000       0.010
   0.06747202  0.05193999  0.00000000       0.010
  -0.01124534  0.08440248  0.00000000       0.010
   0.06747202 -0.05193999  0.00000000       0.010
  -0.01124534 -0.08440248  0.00000000       0.010
  -0.07871736 -0.03246249  0.00000000       0.010
  -0.07871736  0.05843248  0.00000000       0.010
   0.08996269 -0.14283496  0.00000000       0.010
  -0.01124534  0.11037247  0.00000000       0.010
   0.08996269 -0.06492498  0.00000000       0.010
  -0.01124534  0.09738747  0.00000000       0.010
   0.07871736  0.05843248  0.00000000       0.010
  -0.05622668  0.04544749  0.00000000       0.010
  -0.06747202 -0.02596999  0.00000000       0.010
  -0.01124534 -0.07141748  0.00000000       0.010
  -0.06747202  0.02596999  0.00000000       0.010
  -0.01124534  0.07141748  0.00000000       0.010
   0.05622668  0.04544749  0.00000000       0.010
  -0.03373601  0.03246249  0.00000000       0.010
  -0.04498135 -0.01298500  0.00000000       0.010
  -0.01124534 -0.04544749  0.00000000       0.010
  -0.04498135  0.01298500  0.00000000       0.010
  -0.01124534  0.04544749  0.00000000       0.010
   0.03373601  0.03246249  0.00000000       0.010
  -0.01124534  0.01947749  0.00000000       0.010
  -0.02249067  0.00000000  0.00000000       0.010
  -0.01124534 -0.01947749  0.00000000       0.010
   0.03373601  0.01947749  0.00000000       0.010
   0.00000000  0.03895499  0.00000000       0.010
  -0.03373601  0.01947749  0.00000000       0.010
   0.05622668  0.00649250  0.00000000       0.010
   0.02249067  0.05193999  0.00000000       0.010
  -0.03373601  0.04544749  0.00000000       0.010
   0.02249067 -0.05193999  0.00000000       0.010
  -0.03373601 -0.04544749  0.00000000       0.010
  -0.05622668  0.00649250  0.00000000       0.010
   0.07871736 -0.00649250  0.00000000       0.010
   0.04498135  0.06492498  0.00000000       0.010
  -0.03373601  0.07141748  0.00000000       0.010
   0.04498135 -0.06492498  0.00000000       0.010
  -0.03373601 -0.07141748  0.00000000       0.010
  -0.07871736 -0.00649250  0.00000000       0.010
  -0.07871736  0.08440248  0.00000000       0.010
   0.06747202 -0.12984997  0.00000000       0.010
  -0.03373601  0.09738747  0.00000000       0.010
   0.06747202 -0.07790998  0.00000000       0.010
  -0.03373601  0.11037247  0.00000000       0.010
   0.07871736 -0.12335747  0.00000000       0.010
  -0.05622668  0.07141748  0.00000000       0.010
   0.08996269 -0.11686497  0.00000000       0.010
  -0.03373601  0.12335747  0.00000000       0.010
   0.08996269 -0.09089498  0.00000000       0.010
  -0.03373601  0.08440248  0.00000000       0.010
   0.05622668  0.07141748  0.00000000       0.010
  -0.03373601  0.05843248  0.00000000       0.010
  -0.06747202  0.00000000  0.00000000       0.010
  -0.03373601 -0.05843248  0.00000000       0.010
   0.05622668  0.03246249  0.00000000       0.010
   0.00000000  0.06492498  0.00000000       0.010
  -0.05622668  0.03246249  0.00000000       0.010
   0.07871736  0.01947749  0.00000000       0.010
   0.02249067  0.07790998  0.00000000       0.010
  -0.05622668  0.05843248  0.00000000       0.010
   0.02249067 -0.07790998  0.00000000       0.010
  -0.05622668 -0.05843248  0.00000000       0.010
  -0.07871736  0.01947749  0.00000000       0.010
  -0.07871736  0.11037247  0.00000000       0.010
   0.04498135 -0.11686497  0.00000000       0.010
  -0.05622668  0.08440248  0.00000000       0.010
   0.04498135 -0.09089498  0.00000000       0.010
  -0.05622668  0.12335747  0.00000000       0.010
   0.07871736 -0.09738747  0.00000000       0.010
  -0.05622668  0.09738747  0.00000000       0.010
   0.06747202 -0.10387997  0.00000000       0.010
  -0.05622668  0.11037247  0.00000000       0.010
   0.07871736  0.04544749  0.00000000       0.010
   0.00000000  0.09089498  0.00000000       0.010
  -0.07871736  0.04544749  0.00000000       0.010
  -0.07871736  0.13634246  0.00000000       0.010
   0.02249067 -0.10387997  0.00000000       0.010
  -0.07871736  0.07141748  0.00000000       0.010
 
 k-points in reciprocal lattice and weights: 0.0.Ir1.Au13                            
   0.06250000  0.06250000  0.00000000       0.010
   0.00000000  0.06250000  0.00000000       0.010
  -0.06250000  0.00000000  0.00000000       0.010
   0.18750000  0.06250000  0.00000000       0.010
   0.12500000  0.18750000  0.00000000       0.010
  -0.06250000  0.12500000  0.00000000       0.010
   0.12500000 -0.06250000  0.00000000       0.010
  -0.06250000 -0.18750000  0.00000000       0.010
  -0.18750000 -0.12500000  0.00000000       0.010
   0.31250000  0.06250000  0.00000000       0.010
   0.25000000  0.31250000  0.00000000       0.010
  -0.06250000  0.25000000  0.00000000       0.010
   0.25000000 -0.06250000  0.00000000       0.010
  -0.06250000 -0.31250000  0.00000000       0.010
  -0.31250000 -0.25000000  0.00000000       0.010
   0.43750000  0.06250000  0.00000000       0.010
   0.37500000  0.43750000  0.00000000       0.010
  -0.06250000  0.37500000  0.00000000       0.010
   0.37500000 -0.06250000  0.00000000       0.010
  -0.06250000 -0.43750000  0.00000000       0.010
  -0.43750000 -0.37500000  0.00000000       0.010
  -0.43750000  0.06250000  0.00000000       0.010
   0.50000000 -0.43750000  0.00000000       0.010
  -0.06250000  0.50000000  0.00000000       0.010
   0.50000000 -0.06250000  0.00000000       0.010
  -0.06250000  0.43750000  0.00000000       0.010
   0.43750000  0.50000000  0.00000000       0.010
  -0.31250000  0.06250000  0.00000000       0.010
  -0.37500000 -0.31250000  0.00000000       0.010
  -0.06250000 -0.37500000  0.00000000       0.010
  -0.37500000 -0.06250000  0.00000000       0.010
  -0.06250000  0.31250000  0.00000000       0.010
   0.31250000  0.37500000  0.00000000       0.010
  -0.18750000  0.06250000  0.00000000       0.010
  -0.25000000 -0.18750000  0.00000000       0.010
  -0.06250000 -0.25000000  0.00000000       0.010
  -0.25000000 -0.06250000  0.00000000       0.010
  -0.06250000  0.18750000  0.00000000       0.010
   0.18750000  0.25000000  0.00000000       0.010
  -0.06250000  0.06250000  0.00000000       0.010
  -0.12500000 -0.06250000  0.00000000       0.010
  -0.06250000 -0.12500000  0.00000000       0.010
   0.18750000  0.18750000  0.00000000       0.010
   0.00000000  0.18750000  0.00000000       0.010
  -0.18750000  0.00000000  0.00000000       0.010
   0.31250000  0.18750000  0.00000000       0.010
   0.12500000  0.31250000  0.00000000       0.010
  -0.18750000  0.12500000  0.00000000       0.010
   0.12500000 -0.18750000  0.00000000       0.010
  -0.18750000 -0.31250000  0.00000000       0.010
  -0.31250000 -0.12500000  0.00000000       0.010
   0.43750000  0.18750000  0.00000000       0.010
   0.25000000  0.43750000  0.00000000       0.010
  -0.18750000  0.25000000  0.00000000       0.010
   0.25000000 -0.18750000  0.00000000       0.010
  -0.18750000 -0.43750000  0.00000000       0.010
  -0.43750000 -0.25000000  0.00000000       0.010
  -0.43750000  0.18750000  0.00000000       0.010
   0.37500000 -0.43750000  0.00000000       0.010
  -0.18750000  0.37500000  0.00000000       0.010
   0.37500000 -0.18750000  0.00000000       0.010
  -0.18750000  0.43750000  0.00000000       0.010
   0.43750000 -0.37500000  0.00000000       0.010
  -0.31250000  0.18750000  0.00000000       0.010
   0.50000000 -0.31250000  0.00000000       0.010
  -0.18750000  0.50000000  0.00000000       0.010
   0.50000000 -0.18750000  0.00000000       0.010
  -0.18750000  0.31250000  0.00000000       0.010
   0.31250000  0.50000000  0.00000000       0.010
  -0.18750000  0.18750000  0.00000000       0.010
  -0.37500000 -0.18750000  0.00000000       0.010
  -0.18750000 -0.37500000  0.00000000       0.010
   0.31250000  0.31250000  0.00000000       0.010
   0.00000000  0.31250000  0.00000000       0.010
  -0.31250000  0.00000000  0.00000000       0.010
   0.43750000  0.31250000  0.00000000       0.010
   0.12500000  0.43750000  0.00000000       0.010
  -0.31250000  0.12500000  0.00000000       0.010
   0.12500000 -0.31250000  0.00000000       0.010
  -0.31250000 -0.43750000  0.00000000       0.010
  -0.43750000 -0.12500000  0.00000000       0.010
  -0.43750000  0.31250000  0.00000000       0.010
   0.25000000 -0.43750000  0.00000000       0.010
  -0.31250000  0.25000000  0.00000000       0.010
   0.25000000 -0.31250000  0.00000000       0.010
  -0.31250000  0.43750000  0.00000000       0.010
   0.43750000 -0.25000000  0.00000000       0.010
  -0.31250000  0.31250000  0.00000000       0.010
   0.37500000 -0.31250000  0.00000000       0.010
  -0.31250000  0.37500000  0.00000000       0.010
   0.43750000  0.43750000  0.00000000       0.010
   0.00000000  0.43750000  0.00000000       0.010
  -0.43750000 -0.00000000  0.00000000       0.010
  -0.43750000  0.43750000  0.00000000       0.010
   0.12500000 -0.43750000  0.00000000       0.010
  -0.43750000  0.12500000  0.00000000       0.010
 
 position of ions in fractional coordinates (direct lattice) 
   0.50642684  0.99120149  0.61877215
   0.00455188  0.01809239  0.69826898
   0.01082890  0.19933891  0.66484866
   0.88555978  0.21542093  0.71605684
   0.89683584  0.89902911  0.70192826
   0.21990527  0.90250192  0.70968106
   0.50216607  0.00394927  0.39441784
   0.50173592  0.49482435  0.61832594
   0.00534332  0.49119854  0.62105388
   0.00107615  0.99010181  0.62553369
   0.33829960  0.83492886  0.54461086
   0.00291085  0.00358528  0.39448330
   0.84053269  0.33358080  0.54447378
   0.67178249  0.67082144  0.46985119
   0.17112408  0.67076527  0.47034387
   0.67162093  0.17073418  0.46984191
   0.17151367  0.17052295  0.47004266
   0.50142232  0.50378574  0.39390381
   0.00294830  0.50362763  0.39434885
   0.33934189  0.33244356  0.54427055
   0.84498985  0.83511317  0.54630159
 
 position of ions in cartesian coordinates  (Angst):
   5.56912836  4.77089794 19.06248871
   0.07557620  0.08708313 21.51154444
   0.61413428  0.95946746 20.48196579
   5.52045625  1.03687421 22.05953431
   7.48282607  4.32724946 21.62427562
   3.73019189  4.34396499 21.86311573
   2.80194312  0.01900883 12.15081435
   4.16365968  2.38171199 19.04874218
   1.39470359  2.36426007 19.13278176
   2.75740435  4.76560490 19.27079117
   4.20043014  4.01871910 16.77780489
   0.02614133  0.01725686 12.15283102
   5.59856000  1.60560690 16.77358179
   5.59783817  3.22882952 14.47468664
   2.81509307  3.22855918 14.48986472
   4.20723291  0.82178583 14.47440084
   1.42712012  0.82076911 14.48058524
   4.18681982  2.42484536 12.13497875
   1.41593201  2.42408436 12.14868907
   2.80985173  1.60013307 16.76732076
   7.01705543  4.01960625 16.82989113
 


--------------------------------------------------------------------------------------------------------


 k-point  1 :   0.0625 0.0625 0.0000  plane waves:   12325
 k-point  2 :   0.0000 0.0625 0.0000  plane waves:   12325
 k-point  3 :  -0.0625 0.0000 0.0000  plane waves:   12325
 k-point  4 :   0.1875 0.0625 0.0000  plane waves:   12294
 k-point  5 :   0.1250 0.1875 0.0000  plane waves:   12294
 k-point  6 :  -0.0625 0.1250 0.0000  plane waves:   12294
 k-point  7 :   0.1250-0.0625 0.0000  plane waves:   12294
 k-point  8 :  -0.0625-0.1875 0.0000  plane waves:   12294
 k-point  9 :  -0.1875-0.1250 0.0000  plane waves:   12294
 k-point 10 :   0.3125 0.0625 0.0000  plane waves:   12263
 k-point 11 :   0.2500 0.3125 0.0000  plane waves:   12263
 k-point 12 :  -0.0625 0.2500 0.0000  plane waves:   12263
 k-point 13 :   0.2500-0.0625 0.0000  plane waves:   12263
 k-point 14 :  -0.0625-0.3125 0.0000  plane waves:   12263
 k-point 15 :  -0.3125-0.2500 0.0000  plane waves:   12263
 k-point 16 :   0.4375 0.0625 0.0000  plane waves:   12221
 k-point 17 :   0.3750 0.4375 0.0000  plane waves:   12221
 k-point 18 :  -0.0625 0.3750 0.0000  plane waves:   12221
 k-point 19 :   0.3750-0.0625 0.0000  plane waves:   12221
 k-point 20 :  -0.0625-0.4375 0.0000  plane waves:   12221
 k-point 21 :  -0.4375-0.3750 0.0000  plane waves:   12221
 k-point 22 :  -0.4375 0.0625 0.0000  plane waves:   12211
 k-point 23 :   0.5000-0.4375 0.0000  plane waves:   12211
 k-point 24 :  -0.0625 0.5000 0.0000  plane waves:   12211
 k-point 25 :   0.5000-0.0625 0.0000  plane waves:   12211
 k-point 26 :  -0.0625 0.4375 0.0000  plane waves:   12211
 k-point 27 :   0.4375 0.5000 0.0000  plane waves:   12211
 k-point 28 :  -0.3125 0.0625 0.0000  plane waves:   12242
 k-point 29 :  -0.3750-0.3125 0.0000  plane waves:   12242
 k-point 30 :  -0.0625-0.3750 0.0000  plane waves:   12242
 k-point 31 :  -0.3750-0.0625 0.0000  plane waves:   12242
 k-point 32 :  -0.0625 0.3125 0.0000  plane waves:   12242
 k-point 33 :   0.3125 0.3750 0.0000  plane waves:   12242
 k-point 34 :  -0.1875 0.0625 0.0000  plane waves:   12280
 k-point 35 :  -0.2500-0.1875 0.0000  plane waves:   12280
 k-point 36 :  -0.0625-0.2500 0.0000  plane waves:   12280
 k-point 37 :  -0.2500-0.0625 0.0000  plane waves:   12280
 k-point 38 :  -0.0625 0.1875 0.0000  plane waves:   12280
 k-point 39 :   0.1875 0.2500 0.0000  plane waves:   12280
 k-point 40 :  -0.0625 0.0625 0.0000  plane waves:   12329
 k-point 41 :  -0.1250-0.0625 0.0000  plane waves:   12329
 k-point 42 :  -0.0625-0.1250 0.0000  plane waves:   12329
 k-point 43 :   0.1875 0.1875 0.0000  plane waves:   12277
 k-point 44 :   0.0000 0.1875 0.0000  plane waves:   12277
 k-point 45 :  -0.1875 0.0000 0.0000  plane waves:   12277
 k-point 46 :   0.3125 0.1875 0.0000  plane waves:   12288
 k-point 47 :   0.1250 0.3125 0.0000  plane waves:   12288
 k-point 48 :  -0.1875 0.1250 0.0000  plane waves:   12288
 k-point 49 :   0.1250-0.1875 0.0000  plane waves:   12288
 k-point 50 :  -0.1875-0.3125 0.0000  plane waves:   12288
 k-point 51 :  -0.3125-0.1250 0.0000  plane waves:   12288
 k-point 52 :   0.4375 0.1875 0.0000  plane waves:   12234
 k-point 53 :   0.2500 0.4375 0.0000  plane waves:   12234
 k-point 54 :  -0.1875 0.2500 0.0000  plane waves:   12234
 k-point 55 :   0.2500-0.1875 0.0000  plane waves:   12234
 k-point 56 :  -0.1875-0.4375 0.0000  plane waves:   12234
 k-point 57 :  -0.4375-0.2500 0.0000  plane waves:   12234
 k-point 58 :  -0.4375 0.1875 0.0000  plane waves:   12216
 k-point 59 :   0.3750-0.4375 0.0000  plane waves:   12216
 k-point 60 :  -0.1875 0.3750 0.0000  plane waves:   12216
 k-point 61 :   0.3750-0.1875 0.0000  plane waves:   12216
 k-point 62 :  -0.1875 0.4375 0.0000  plane waves:   12216
 k-point 63 :   0.4375-0.3750 0.0000  plane waves:   12216
 k-point 64 :  -0.3125 0.1875 0.0000  plane waves:   12215
 k-point 65 :   0.5000-0.3125 0.0000  plane waves:   12215
 k-point 66 :  -0.1875 0.5000 0.0000  plane waves:   12215
 k-point 67 :   0.5000-0.1875 0.0000  plane waves:   12215
 k-point 68 :  -0.1875 0.3125 0.0000  plane waves:   12215
 k-point 69 :   0.3125 0.5000 0.0000  plane waves:   12215
 k-point 70 :  -0.1875 0.1875 0.0000  plane waves:   12289
 k-point 71 :  -0.3750-0.1875 0.0000  plane waves:   12289
 k-point 72 :  -0.1875-0.3750 0.0000  plane waves:   12289
 k-point 73 :   0.3125 0.3125 0.0000  plane waves:   12275
 k-point 74 :   0.0000 0.3125 0.0000  plane waves:   12275
 k-point 75 :  -0.3125 0.0000 0.0000  plane waves:   12275
 k-point 76 :   0.4375 0.3125 0.0000  plane waves:   12239
 k-point 77 :   0.1250 0.4375 0.0000  plane waves:   12239
 k-point 78 :  -0.3125 0.1250 0.0000  plane waves:   12239
 k-point 79 :   0.1250-0.3125 0.0000  plane waves:   12239
 k-point 80 :  -0.3125-0.4375 0.0000  plane waves:   12239
 k-point 81 :  -0.4375-0.1250 0.0000  plane waves:   12239
 k-point 82 :  -0.4375 0.3125 0.0000  plane waves:   12235
 k-point 83 :   0.2500-0.4375 0.0000  plane waves:   12235
 k-point 84 :  -0.3125 0.2500 0.0000  plane waves:   12235
 k-point 85 :   0.2500-0.3125 0.0000  plane waves:   12235
 k-point 86 :  -0.3125 0.4375 0.0000  plane waves:   12235
 k-point 87 :   0.4375-0.2500 0.0000  plane waves:   12235
 k-point 88 :  -0.3125 0.3125 0.0000  plane waves:   12232
 k-point 89 :   0.3750-0.3125 0.0000  plane waves:   12232
 k-point 90 :  -0.3125 0.3750 0.0000  plane waves:   12232
 k-point 91 :   0.4375 0.4375 0.0000  plane waves:   12200
 k-point 92 :   0.0000 0.4375 0.0000  plane waves:   12200
 k-point 93 :  -0.4375-0.0000 0.0000  plane waves:   12200
 k-point 94 :  -0.4375 0.4375 0.0000  plane waves:   12214
 k-point 95 :   0.1250-0.4375 0.0000  plane waves:   12214
 k-point 96 :  -0.4375 0.1250 0.0000  plane waves:   12214

 maximum and minimum number of plane-waves per node :      3101     2992

 maximum number of plane-waves:     12329
 maximum index in each direction: 
   IXMAX=    8   IYMAX=    8   IZMAX=   46
   IXMIN=   -8   IYMIN=   -8   IZMIN=  -46


 real space projection operators:
  total allocation   :       5097.58 KBytes
  max/ min on nodes  :       1279.02       1270.19


 parallel 3D FFT for wavefunctions:
    minimum data exchange during FFTs selected (reduces bandwidth)
 parallel 3D FFT for charge:
    minimum data exchange during FFTs selected (reduces bandwidth)


 total amount of memory used by VASP MPI-rank0   164313. kBytes
=======================================================================

   base      :      30000. kBytes
   nonlr-proj:       2360. kBytes
   fftplans  :       2967. kBytes
   grid      :       6321. kBytes
   one-center:         93. kBytes
   wavefun   :     122572. kBytes
 
     INWAV:  cpu time    0.0000: real time    0.0000
 Broyden mixing: mesh for mixing (old mesh)
   NGX = 17   NGY = 17   NGZ = 93
  (NGX  = 56   NGY  = 56   NGZ  =288)
  gives a total of  26877 points

 initial charge density was supplied:
 charge density of overlapping atoms calculated
 number of electron     168.0000000 magnetization 
 keeping initial charge density in first step


--------------------------------------------------------------------------------------------------------


 Maximum index for non-local projection operator          544
 Maximum index for augmentation-charges          718 (set IRDMAX)


--------------------------------------------------------------------------------------------------------


 First call to EWALD:  gamma=   0.189
 Maximum number of real-space cells 5x 5x 1
 Maximum number of reciprocal cells 2x 2x 8

    FEWALD:  cpu time    0.0013: real time    0.0013


--------------------------------------- Iteration      1(   1)  ---------------------------------------


    POTLOK:  cpu time    0.0261: real time    0.0318
    SETDIJ:  cpu time    0.0035: real time    0.0035
     EDDAV:  cpu time   14.4582: real time   14.4604
       DOS:  cpu time    0.0074: real time    0.0074
    --------------------------------------------
      LOOP:  cpu time   14.4952: real time   14.5031

 eigenvalue-minimisations  : 19288
 total energy-change (2. order) : 0.1031358E+04  (-0.5832571E+04)
 number of electron     168.0000000 magnetization 
 augmentation part      168.0000000 magnetization 

 Free energy of the ion-electron system (eV)
  ---------------------------------------------------
  alpha Z        PSCENC =       324.87461712
  Ewald energy   TEWEN  =    101150.54723823
  -Hartree energ DENC   =   -113436.85216090
  -exchange      EXHF   =         0.00000000
  -V(xc)+E(xc)   XCENC  =        69.47499022
  PAW double counting   =     11288.27476651   -10829.50941267
  entropy T*S    EENTRO =         0.00044261
  eigenvalues    EBANDS =       573.90981292
  atomic energy  EATOM  =     11890.63736546
  Solvation  Ediel_sol  =         0.00000000
  ---------------------------------------------------
  free energy    TOTEN  =      1031.35765950 eV

  energy without entropy =     1031.35721688  energy(sigma->0) =     1031.35751196


--------------------------------------------------------------------------------------------------------




--------------------------------------- Iteration      1(   2)  ---------------------------------------


     EDDAV:  cpu time   17.1130: real time   17.1145
       DOS:  cpu time    0.0085: real time    0.0085
    --------------------------------------------
      LOOP:  cpu time   17.1215: real time   17.1230

 eigenvalue-minimisations  : 23928
 total energy-change (2. order) :-0.1059125E+04  (-0.9843526E+03)
 number of electron     168.0000000 magnetization 
 augmentation part      168.0000000 magnetization 

 Free energy of the ion-electron system (eV)
  ---------------------------------------------------
  alpha Z        PSCENC =       324.87461712
  Ewald energy   TEWEN  =    101150.54723823
  -Hartree energ DENC   =   -113436.85216090
  -exchange      EXHF   =         0.00000000
  -V(xc)+E(xc)   XCENC  =        69.47499022
  PAW double counting   =     11288.27476651   -10829.50941267
  entropy T*S    EENTRO =         0.00355143
  eigenvalues    EBANDS =      -485.21840679
  atomic energy  EATOM  =     11890.63736546
  Solvation  Ediel_sol  =         0.00000000
  ---------------------------------------------------
  free energy    TOTEN  =       -27.76745139 eV

  energy without entropy =      -27.77100283  energy(sigma->0) =      -27.76863521


--------------------------------------------------------------------------------------------------------




--------------------------------------- Iteration      1(   3)  ---------------------------------------


     EDDAV:  cpu time   16.5175: real time   16.5197
       DOS:  cpu time    0.0087: real time    0.0087
    --------------------------------------------
      LOOP:  cpu time   16.5262: real time   16.5284

 eigenvalue-minimisations  : 22904
 total energy-change (2. order) :-0.9186655E+02  (-0.8494022E+02)
 number of electron     168.0000000 magnetization 
 augmentation part      168.0000000 magnetization 

 Free energy of the ion-electron system (eV)
  ---------------------------------------------------
  alpha Z        PSCENC =       324.87461712
  Ewald energy   TEWEN  =    101150.54723823
  -Hartree energ DENC   =   -113436.85216090
  -exchange      EXHF   =         0.00000000
  -V(xc)+E(xc)   XCENC  =        69.47499022
  PAW double counting   =     11288.27476651   -10829.50941267
  entropy T*S    EENTRO =        -0.02211466
  eigenvalues    EBANDS =      -577.05928852
  atomic energy  EATOM  =     11890.63736546
  Solvation  Ediel_sol  =         0.00000000
  ---------------------------------------------------
  free energy    TOTEN  =      -119.63399922 eV

  energy without entropy =     -119.61188456  energy(sigma->0) =     -119.62662766


--------------------------------------------------------------------------------------------------------




--------------------------------------- Iteration      1(   4)  ---------------------------------------


     EDDAV:  cpu time   18.1794: real time   18.1820
       DOS:  cpu time    0.0089: real time    0.0089
    --------------------------------------------
      LOOP:  cpu time   18.1883: real time   18.1908

 eigenvalue-minimisations  : 25888
 total energy-change (2. order) :-0.4577265E+01  (-0.4348999E+01)
 number of electron     168.0000000 magnetization 
 augmentation part      168.0000000 magnetization 

 Free energy of the ion-electron system (eV)
  ---------------------------------------------------
  alpha Z        PSCENC =       324.87461712
  Ewald energy   TEWEN  =    101150.54723823
  -Hartree energ DENC   =   -113436.85216090
  -exchange      EXHF   =         0.00000000
  -V(xc)+E(xc)   XCENC  =        69.47499022
  PAW double counting   =     11288.27476651   -10829.50941267
  entropy T*S    EENTRO =        -0.03307818
  eigenvalues    EBANDS =      -581.62558967
  atomic energy  EATOM  =     11890.63736546
  Solvation  Ediel_sol  =         0.00000000
  ---------------------------------------------------
  free energy    TOTEN  =      -124.21126388 eV

  energy without entropy =     -124.17818571  energy(sigma->0) =     -124.20023782


--------------------------------------------------------------------------------------------------------




--------------------------------------- Iteration      1(   5)  ---------------------------------------


     EDDAV:  cpu time   18.2954: real time   18.3050
       DOS:  cpu time    0.0087: real time    0.0087
    CHARGE:  cpu time    0.7156: real time    0.7157
    MIXING:  cpu time    0.0011: real time    0.0011
    --------------------------------------------
      LOOP:  cpu time   19.0207: real time   19.0304

 eigenvalue-minimisations  : 26080
 total energy-change (2. order) :-0.1421844E+00  (-0.1409421E+00)
 number of electron     167.9999976 magnetization 
 augmentation part       47.0221127 magnetization 

 Broyden mixing:
  rms(total) = 0.43310E+01    rms(broyden)= 0.43308E+01
  rms(prec ) = 0.43728E+01
  weight for this iteration     100.00

 Free energy of the ion-electron system (eV)
  ---------------------------------------------------
  alpha Z        PSCENC =       324.87461712
  Ewald energy   TEWEN  =    101150.54723823
  -Hartree energ DENC   =   -113436.85216090
  -exchange      EXHF   =         0.00000000
  -V(xc)+E(xc)   XCENC  =        69.47499022
  PAW double counting   =     11288.27476651   -10829.50941267
  entropy T*S    EENTRO =        -0.03333921
  eigenvalues    EBANDS =      -581.76751303
  atomic energy  EATOM  =     11890.63736546
  Solvation  Ediel_sol  =         0.00000000
  ---------------------------------------------------
  free energy    TOTEN  =      -124.35344828 eV

  energy without entropy =     -124.32010907  energy(sigma->0) =     -124.34233521


--------------------------------------------------------------------------------------------------------




--------------------------------------- Iteration      1(   6)  ---------------------------------------


    POTLOK:  cpu time    0.0234: real time    0.0237
    SETDIJ:  cpu time    0.0035: real time    0.0035
     EDDAV:  cpu time   16.2768: real time   16.2778
       DOS:  cpu time    0.0098: real time    0.0098
    CHARGE:  cpu time    0.7254: real time    0.7254
    MIXING:  cpu time    0.0012: real time    0.0012
    --------------------------------------------
      LOOP:  cpu time   17.0401: real time   17.0414

 eigenvalue-minimisations  : 22540
 total energy-change (2. order) : 0.6559671E+01  (-0.3178793E+01)
 number of electron     167.9999970 magnetization 
 augmentation part       49.9507793 magnetization 

 Broyden mixing:
  rms(total) = 0.31740E+01    rms(broyden)= 0.31739E+01
  rms(prec ) = 0.32704E+01
  weight for this iteration     100.00

 eigenvalues of (default mixing * dielectric matrix)
  average eigenvalue GAMMA=   1.2338
  1.2338

 Free energy of the ion-electron system (eV)
  ---------------------------------------------------
  alpha Z        PSCENC =       324.87461712
  Ewald energy   TEWEN  =    101150.54723823
  -Hartree energ DENC   =   -113232.99053080
  -exchange      EXHF   =         0.00000000
  -V(xc)+E(xc)   XCENC  =        66.25497567
  PAW double counting   =     12554.81444527   -12119.78750603
  entropy T*S    EENTRO =        -0.00733401
  eigenvalues    EBANDS =      -752.13704846
  atomic energy  EATOM  =     11890.63736546
  Solvation  Ediel_sol  =         0.00000000
  ---------------------------------------------------
  free energy    TOTEN  =      -117.79377755 eV

  energy without entropy =     -117.78644354  energy(sigma->0) =     -117.79133288


--------------------------------------------------------------------------------------------------------




--------------------------------------- Iteration      1(   7)  ---------------------------------------


    POTLOK:  cpu time    0.0218: real time    0.0228
    SETDIJ:  cpu time    0.0035: real time    0.0035
     EDDAV:  cpu time   19.1960: real time   19.1971
       DOS:  cpu time    0.0096: real time    0.0096
    CHARGE:  cpu time    0.7234: real time    0.7234
    MIXING:  cpu time    0.0012: real time    0.0012
    --------------------------------------------
      LOOP:  cpu time   19.9555: real time   19.9576

 eigenvalue-minimisations  : 27764
 total energy-change (2. order) :-0.2390350E+02  (-0.9768323E+01)
 number of electron     167.9999975 magnetization 
 augmentation part       49.0416144 magnetization 

 Broyden mixing:
  rms(total) = 0.45592E+01    rms(broyden)= 0.45591E+01
  rms(prec ) = 0.50453E+01
  weight for this iteration     100.00

 eigenvalues of (default mixing * dielectric matrix)
  average eigenvalue GAMMA=   1.0979
  1.9377  0.2582

 Free energy of the ion-electron system (eV)
  ---------------------------------------------------
  alpha Z        PSCENC =       324.87461712
  Ewald energy   TEWEN  =    101150.54723823
  -Hartree energ DENC   =   -113448.83686894
  -exchange      EXHF   =         0.00000000
  -V(xc)+E(xc)   XCENC  =        65.78512366
  PAW double counting   =     13563.08195007   -13137.48295147
  entropy T*S    EENTRO =         0.00409499
  eigenvalues    EBANDS =      -550.30785152
  atomic energy  EATOM  =     11890.63736546
  Solvation  Ediel_sol  =         0.00000000
  ---------------------------------------------------
  free energy    TOTEN  =      -141.69728241 eV

  energy without entropy =     -141.70137740  energy(sigma->0) =     -141.69864741


--------------------------------------------------------------------------------------------------------




--------------------------------------- Iteration      1(   8)  ---------------------------------------


    POTLOK:  cpu time    0.0261: real time    0.0262
    SETDIJ:  cpu time    0.0036: real time    0.0036
     EDDAV:  cpu time   20.2556: real time   20.2593
       DOS:  cpu time    0.0096: real time    0.0096
    CHARGE:  cpu time    0.7213: real time    0.7214
    MIXING:  cpu time    0.0012: real time    0.0012
    --------------------------------------------
      LOOP:  cpu time   21.0174: real time   21.0213

 eigenvalue-minimisations  : 29624
 total energy-change (2. order) : 0.2094397E+02  (-0.3056784E+01)
 number of electron     167.9999983 magnetization 
 augmentation part       50.2592889 magnetization 

 Broyden mixing:
  rms(total) = 0.20331E+01    rms(broyden)= 0.20330E+01
  rms(prec ) = 0.24730E+01
  weight for this iteration     100.00

 eigenvalues of (default mixing * dielectric matrix)
  average eigenvalue GAMMA=   0.9415
  2.1058  0.4101  0.3087

 Free energy of the ion-electron system (eV)
  ---------------------------------------------------
  alpha Z        PSCENC =       324.87461712
  Ewald energy   TEWEN  =    101150.54723823
  -Hartree energ DENC   =   -113303.12653422
  -exchange      EXHF   =         0.00000000
  -V(xc)+E(xc)   XCENC  =        65.20437062
  PAW double counting   =     14454.24212367   -14038.55046588
  entropy T*S    EENTRO =         0.01157608
  eigenvalues    EBANDS =      -664.59360230
  atomic energy  EATOM  =     11890.63736546
[...]
     21      -4.9167      2.00000
     22      -4.8526      2.00000
     23      -4.8085      2.00000
     24      -4.6655      2.00000
     25      -4.5870      2.00000
     26      -4.5413      2.00000
     27      -4.5028      2.00000
     28      -4.4576      2.00000
     29      -4.3632      2.00000
     30      -4.3038      2.00000
     31      -4.2698      2.00000
     32      -4.2462      2.00000
     33      -4.0580      2.00000
     34      -3.9985      2.00000
     35      -3.9246      2.00000
     36      -3.8683      2.00000
     37      -3.8154      2.00000
     38      -3.7217      2.00000
     39      -3.6893      2.00000
     40      -3.6523      2.00000
     41      -3.5275      2.00000
     42      -3.4485      2.00000
     43      -3.4142      2.00000
     44      -3.3525      2.00000
     45      -3.2602      2.00000
     46      -3.2351      2.00000
     47      -3.2065      2.00000
     48      -2.9806      2.00000
     49      -2.9503      2.00000
     50      -2.9118      2.00000
     51      -2.8643      2.00000
     52      -2.8431      2.00000
     53      -2.7489      2.00000
     54      -2.6867      2.00000
     55      -2.5794      2.00000
     56      -2.5180      2.00000
     57      -2.4392      2.00000
     58      -2.2664      2.00000
     59      -2.2091      2.00000
     60      -2.1678      2.00000
     61      -2.1445      2.00000
     62      -2.0588      2.00000
     63      -1.9745      2.00000
     64      -1.9249      2.00000
     65      -1.8278      2.00000
     66      -1.7904      2.00000
     67      -1.6455      2.00000
     68      -1.5544      2.00000
     69      -1.4353      2.00000
     70      -1.4059      2.00000
     71      -1.3885      2.00000
     72      -1.3222      2.00000
     73      -1.2269      2.00000
     74      -1.2038      2.00000
     75      -1.1644      2.00000
     76      -0.9836      2.00000
     77      -0.8700      2.00000
     78      -0.7945      2.00000
     79      -0.6950      2.00004
     80      -0.5162      2.00388
     81      -0.4490      2.01380
     82      -0.3155      2.06515
     83      -0.2534      2.06146
     84      -0.1542      1.81290
     85      -0.0995      1.47928
     86       0.0201      0.51564
     87       0.0816      0.15252
     88       0.1500     -0.03830
     89       0.2657     -0.05270
     90       0.7543     -0.00000
     91       0.9651     -0.00000
     92       1.3004     -0.00000
     93       2.0565     -0.00000
     94       2.1704     -0.00000
     95       2.7669     -0.00000
     96       3.0762     -0.00000
     97       3.7618     -0.00000
     98       4.0565     -0.00000
     99       4.3427     -0.00000
    100       4.5269     -0.00000

 k-point    96 :      -0.4375    0.1250    0.0000
  band No.  band energies     occupation 
      1     -13.4723      2.00000
      2      -7.9566      2.00000
      3      -7.5300      2.00000
      4      -7.3846      2.00000
      5      -6.6069      2.00000
      6      -6.4902      2.00000
      7      -6.2355      2.00000
      8      -6.0636      2.00000
      9      -5.9830      2.00000
     10      -5.8300      2.00000
     11      -5.7424      2.00000
     12      -5.5887      2.00000
     13      -5.5281      2.00000
     14      -5.4767      2.00000
     15      -5.4209      2.00000
     16      -5.3783      2.00000
     17      -5.2414      2.00000
     18      -5.1826      2.00000
     19      -5.0425      2.00000
     20      -4.9862      2.00000
     21      -4.9719      2.00000
     22      -4.8732      2.00000
     23      -4.7526      2.00000
     24      -4.6846      2.00000
     25      -4.6003      2.00000
     26      -4.5887      2.00000
     27      -4.4958      2.00000
     28      -4.4614      2.00000
     29      -4.3723      2.00000
     30      -4.3276      2.00000
     31      -4.2608      2.00000
     32      -4.1740      2.00000
     33      -4.1033      2.00000
     34      -4.0173      2.00000
     35      -3.9330      2.00000
     36      -3.8712      2.00000
     37      -3.8440      2.00000
     38      -3.7179      2.00000
     39      -3.6527      2.00000
     40      -3.6014      2.00000
     41      -3.5576      2.00000
     42      -3.4763      2.00000
     43      -3.3783      2.00000
     44      -3.3518      2.00000
     45      -3.2802      2.00000
     46      -3.1546      2.00000
     47      -3.0729      2.00000
     48      -2.9493      2.00000
     49      -2.9221      2.00000
     50      -2.8843      2.00000
     51      -2.8496      2.00000
     52      -2.8182      2.00000
     53      -2.7835      2.00000
     54      -2.6787      2.00000
     55      -2.6560      2.00000
     56      -2.5170      2.00000
     57      -2.3771      2.00000
     58      -2.2704      2.00000
     59      -2.2034      2.00000
     60      -2.1626      2.00000
     61      -2.0910      2.00000
     62      -2.0012      2.00000
     63      -1.9270      2.00000
     64      -1.8588      2.00000
     65      -1.7874      2.00000
     66      -1.7042      2.00000
     67      -1.6630      2.00000
     68      -1.5698      2.00000
     69      -1.5378      2.00000
     70      -1.4507      2.00000
     71      -1.3833      2.00000
     72      -1.3168      2.00000
     73      -1.2256      2.00000
     74      -1.1924      2.00000
     75      -1.1330      2.00000
     76      -0.9970      2.00000
     77      -0.9382      2.00000
     78      -0.7909      2.00000
     79      -0.7457      2.00001
     80      -0.6147      2.00037
     81      -0.5131      2.00414
     82      -0.4119      2.02452
     83      -0.2046      1.99132
     84      -0.1651      1.86211
     85      -0.0913      1.41851
     86      -0.0183      0.81732
     87       0.0911      0.11308
     88       0.1509     -0.03958
     89       0.2837     -0.04442
     90       0.7555     -0.00000
     91       0.9604     -0.00000
     92       1.2772     -0.00000
     93       2.0523     -0.00000
     94       2.1440     -0.00000
     95       2.7474     -0.00000
     96       3.0530     -0.00000
     97       3.6937     -0.00000
     98       3.9711     -0.00000
     99       4.3799     -0.00000
    100       4.4867     -0.00000


--------------------------------------------------------------------------------------------------------


 soft charge-density along one line, spin component           1
         0         1         2         3         4         5         6         7         8         9
 total charge-density along one line
 
 pseudopotential strength for first ion, spin component:           1
 -7.749  -0.001  -0.001  -0.005  -0.001  -7.902  -0.001  -0.001
 -0.001  -7.690  -0.002   0.000  -0.003  -0.001  -7.844  -0.002
 -0.001  -0.002  -7.685  -0.000  -0.003  -0.001  -0.002  -7.840
 -0.005   0.000  -0.000  -7.688  -0.002  -0.005   0.000  -0.000
 -0.001  -0.003  -0.003  -0.002  -7.745  -0.001  -0.003  -0.003
 -7.902  -0.001  -0.001  -0.005  -0.001  -8.039  -0.001  -0.001
 -0.001  -7.844  -0.002   0.000  -0.003  -0.001  -7.982  -0.002
 -0.001  -0.002  -7.840  -0.000  -0.003  -0.001  -0.002  -7.978
 -0.005   0.000  -0.000  -7.842  -0.002  -0.005   0.000  -0.000
 -0.001  -0.003  -0.003  -0.002  -7.898  -0.001  -0.003  -0.003
 -0.000   0.001  -0.020   0.001  -0.001  -0.000   0.001  -0.020
 -0.001   0.001  -0.029   0.001  -0.001  -0.001   0.001  -0.029
 -0.002   0.004  -0.001  -0.000  -0.001  -0.002   0.004  -0.001
 -0.000   0.001   0.007  -0.002   0.000  -0.000   0.001   0.006
  0.001  -0.000   0.001   0.005  -0.002   0.001  -0.000   0.001
 -0.002   0.004  -0.001  -0.000  -0.002  -0.002   0.003  -0.001
 -0.000   0.001   0.006  -0.002   0.001  -0.000   0.001   0.005
  0.001  -0.000   0.001   0.005  -0.002   0.001  -0.000   0.001
 total augmentation occupancy for first ion, spin component:           1
  5.019  -0.050   0.006   0.160  -0.116  -3.186   0.044  -0.007  -0.217   0.094   0.027  -0.018  -0.001   0.006   0.057  -0.002
 -0.050   4.882  -0.061  -0.048   0.063   0.044  -2.660   0.035   0.042  -0.128  -0.047   0.014   0.206   0.001   0.014  -0.008
  0.006  -0.061   5.336   0.016  -0.091  -0.007   0.035  -3.231  -0.012   0.060   0.747  -0.074   0.003   0.432   0.009  -0.001
  0.160  -0.048   0.016   5.052  -0.128  -0.217   0.042  -0.012  -2.831   0.103   0.022  -0.025   0.009  -0.013   0.173  -0.001
 -0.116   0.063  -0.091  -0.128   5.342   0.094  -0.130   0.060   0.103  -3.431  -0.052   0.038   0.044  -0.034  -0.021  -0.003
 -3.186   0.044  -0.007  -0.217   0.094   3.224  -0.040   0.008   0.261  -0.076  -0.021   0.015   0.003  -0.006  -0.059  -0.000
  0.044  -2.660   0.035   0.042  -0.130  -0.040   2.394  -0.014  -0.037   0.179   0.045  -0.013  -0.192  -0.006  -0.012   0.008
 -0.007   0.035  -3.231  -0.012   0.060   0.008  -0.014   3.065   0.008  -0.036  -0.684   0.091  -0.001  -0.421  -0.012  -0.000
 -0.217   0.042  -0.012  -2.831   0.103   0.261  -0.037   0.008   2.573  -0.083  -0.022   0.024  -0.008   0.014  -0.167   0.000
  0.094  -0.128   0.060   0.103  -3.431  -0.076   0.179  -0.036  -0.083   3.406   0.050  -0.037  -0.042   0.026   0.027   0.001
  0.027  -0.047   0.747   0.022  -0.052  -0.021   0.045  -0.684  -0.022   0.050   2.675  -0.640  -0.008  -0.165   0.014   0.001
 -0.018   0.014  -0.074  -0.025   0.038   0.015  -0.013   0.091   0.024  -0.037  -0.640   0.191  -0.001   0.070  -0.000  -0.000
 -0.001   0.206   0.003   0.009   0.044   0.003  -0.192  -0.001  -0.008  -0.042  -0.008  -0.001   0.238   0.000   0.001  -0.007
  0.006   0.001   0.432  -0.013  -0.034  -0.006  -0.006  -0.421   0.014   0.026  -0.165   0.070   0.000   0.145   0.002  -0.000
  0.057   0.014   0.009   0.173  -0.021  -0.059  -0.012  -0.012  -0.167   0.027   0.014  -0.000   0.001   0.002   0.235   0.000
 -0.002  -0.008  -0.001  -0.001  -0.003  -0.000   0.008  -0.000   0.000   0.001   0.001  -0.000  -0.007  -0.000   0.000   0.000
 -0.000   0.002  -0.006  -0.002   0.001   0.000  -0.000   0.011   0.000  -0.001   0.009  -0.003  -0.000  -0.005   0.000   0.000
  0.000  -0.001   0.001  -0.005  -0.001   0.002   0.000   0.000   0.007  -0.000  -0.001   0.000   0.000   0.000  -0.007  -0.000


------------------------ aborting loop because EDIFF is reached ----------------------------------------



 DIPCOR: dipole corrections for dipol
 direction  3 min pos    22,
 dipolmoment           0.000000      0.000000     -0.403155 electrons x Angstroem
 Tr[quadrupol]      -944.650143

 energy correction for charged system         0.000000 eV
 dipol+quadrupol energy correction            0.017844 eV
 added-field ion interaction          0.000000 eV  (added to PSCEN)

 
  *************** adding dipol energy to TOTEN NOW **************** 
    CHARGE:  cpu time    0.7108: real time    0.7109
    FORLOC:  cpu time    0.0070: real time    0.0070
    FORNL :  cpu time    3.2574: real time    3.2577
    STRESS:  cpu time    9.8062: real time    9.8067
    FORCOR:  cpu time    0.0285: real time    0.0285
    FORHAR:  cpu time    0.0120: real time    0.0120
    MIXING:  cpu time    0.0039: real time    0.0039
    OFIELD:  cpu time    0.0000: real time    0.0000

  FORCE on cell =-STRESS in cart. coord.  units (eV):
  Direction    XX          YY          ZZ          XY          YZ          ZX
  --------------------------------------------------------------------------------------
  Alpha Z   324.87462   324.87462   324.87462
  Ewald  110035.40945110035.46503************    29.34140    15.32773     7.12016
  Hartree112561.75617112558.43361************    11.32660     2.23327     0.38746
  E(xc)    -737.39629  -737.35758  -741.28877     0.11995     0.00997     0.00796
  Local  ************************227744.90833   -36.89954   -13.77371    -4.74113
  n-local    46.82808    45.03849    30.57930    -0.05201     0.09071    -0.29298
  augment   835.80098   836.32212   859.39459    -0.67447    -0.94207    -0.66326
  Kinetic  2386.32697  2385.50881  2446.61580    -3.40003    -2.95430    -2.23501
  Fock        0.00000     0.00000     0.00000     0.00000     0.00000     0.00000
  -------------------------------------------------------------------------------------
  Total      -9.76140   -10.17718    -1.93842    -0.23809    -0.00840    -0.41679
  in kB     -18.97703   -19.78535    -3.76846    -0.46288    -0.01633    -0.81028
  external pressure =      -14.18 kB  Pullay stress =        0.00 kB


 VOLUME and BASIS-vectors are now :
 -----------------------------------------------------------------------------
  energy-cutoff  :      350.00
  volume of cell :      824.13
      direct lattice vectors                 reciprocal lattice vectors
     5.557859300  0.000000000  0.000000000     0.179925390 -0.103879972  0.000000000
     2.778929650  4.813247345  0.000000000     0.000000000  0.207759944  0.000000000
     0.000000000  0.000000000 30.806959674     0.000000000  0.000000000  0.032460198

  length of vectors
     5.557859300  5.557859300 30.806959674     0.207759944  0.207759944  0.032460198


 FORCES acting on ions
    electron-ion (+dipol)            ewald-force                    non-local-force                 convergence-correction
 -----------------------------------------------------------------------------------------------
   0.361E+01 -.161E+01 -.282E+04   -.320E+01 0.129E+01 0.282E+04   -.493E+00 0.414E+00 0.710E+00   0.265E-04 0.127E-03 0.462E-02
   0.244E+00 0.227E+01 -.133E+04   -.551E+00 -.399E+01 0.134E+04   0.303E+00 0.176E+01 -.298E+01   -.215E-04 0.643E-04 -.299E-02
   -.161E+02 -.257E+02 -.333E+03   0.171E+02 0.273E+02 0.334E+03   -.967E+00 -.154E+01 -.548E+00   -.166E-04 0.163E-03 -.610E-03
   0.602E+01 -.415E+02 -.347E+03   -.663E+01 0.462E+02 0.350E+03   0.607E+00 -.468E+01 -.277E+01   -.641E-05 0.208E-04 -.769E-03
   0.414E+02 0.257E+02 -.338E+03   -.461E+02 -.286E+02 0.339E+03   0.472E+01 0.293E+01 -.535E+00   0.197E-04 -.173E-04 -.743E-03
   -.390E+02 0.258E+02 -.343E+03   0.435E+02 -.287E+02 0.344E+03   -.449E+01 0.290E+01 -.178E+01   -.159E-04 -.232E-04 -.752E-03
   -.750E+00 0.129E+01 0.265E+04   0.751E+00 -.128E+01 -.265E+04   0.124E-01 0.278E-01 -.176E+00   -.701E-04 0.958E-04 0.885E-02
   0.196E+01 -.852E+00 -.255E+04   -.230E+01 0.115E+01 0.255E+04   0.392E+00 -.309E+00 0.105E+01   -.150E-03 -.108E-03 0.476E-02
   -.642E+01 -.711E+01 -.259E+04   0.657E+01 0.759E+01 0.259E+04   -.218E+00 -.527E+00 0.199E+00   0.179E-03 0.650E-05 0.385E-02
   0.682E+01 0.202E+02 -.258E+04   -.699E+01 -.204E+02 0.258E+04   0.214E+00 0.283E+00 -.145E+01   -.471E-04 -.124E-03 0.284E-02
   0.467E+01 0.850E+00 -.701E+03   -.501E+01 -.831E+00 0.701E+03   0.218E+00 -.129E+00 0.211E+00   -.327E-03 -.720E-03 0.197E-01
   0.642E+00 -.352E+00 0.295E+04   -.623E+00 0.349E+00 -.295E+04   -.165E-02 0.836E-01 -.669E+00   0.538E-04 -.103E-03 0.974E-02
   -.157E+01 0.122E+01 -.708E+03   0.161E+01 -.133E+01 0.707E+03   -.574E-01 0.121E+00 0.456E+00   -.183E-03 0.430E-03 0.204E-01
   -.141E+01 -.630E+01 0.115E+04   0.149E+01 0.660E+01 -.115E+04   -.691E-01 -.901E-01 -.154E+00   -.509E-04 -.117E-02 0.249E-01
   0.141E+01 -.517E+00 0.114E+04   -.143E+01 0.549E+00 -.114E+04   0.183E-01 -.383E-01 -.364E+00   0.578E-04 -.179E-03 0.240E-01
   0.487E+01 0.476E+01 0.115E+04   -.503E+01 -.487E+01 -.115E+04   0.171E-01 -.118E-01 -.251E+00   0.850E-03 0.705E-03 0.250E-01
   -.418E+01 0.298E+01 0.115E+04   0.439E+01 -.308E+01 -.115E+04   -.725E-01 -.127E-01 -.475E+00   -.852E-03 0.641E-03 0.251E-01
   -.220E+01 -.144E+00 0.295E+04   0.209E+01 0.138E+00 -.295E+04   0.184E+00 -.234E-01 -.661E+00   -.161E-03 0.472E-04 0.947E-02
   0.156E+01 -.833E+00 0.295E+04   -.152E+01 0.831E+00 -.295E+04   -.947E-01 -.396E-01 -.720E+00   0.174E-03 -.315E-04 0.970E-02
   0.112E+01 -.476E+01 -.691E+03   -.114E+01 0.488E+01 0.690E+03   0.557E-01 -.687E-02 0.272E+00   0.192E-03 0.807E-03 0.203E-01
   -.233E+01 0.382E+01 -.734E+03   0.305E+01 -.370E+01 0.734E+03   -.561E+00 -.199E+00 -.386E+00   0.304E-03 -.533E-03 0.193E-01
 -----------------------------------------------------------------------------------------------
   0.302E+00 -.904E+00 0.108E+02   -.768E-13 -.107E-13 0.341E-12   -.285E+00 0.910E+00 -.110E+02   -.467E-04 0.101E-03 0.227E+00
 
 
 POSITION                                       TOTAL-FORCE (eV/Angst)
 -----------------------------------------------------------------------------------
      5.56913      4.77090     19.06249        -0.089106      0.094440      1.058079
      0.07558      0.08708     21.51154        -0.004421      0.034424     -0.013524
      0.61413      0.95947     20.48197        -0.049179      0.008385     -0.022661
      5.52046      1.03687     22.05953         0.005482     -0.024274      0.034901
      7.48283      4.32725     21.62428         0.014493     -0.007486      0.005477
      3.73019      4.34396     21.86312        -0.002904     -0.006707      0.003148
      2.80194      0.01901     12.15081         0.012810      0.031871      1.176377
      4.16366      2.38171     19.04874         0.054639     -0.014245     -0.143685
      1.39470      2.36426     19.13278        -0.069742     -0.048501     -0.116693
      2.75740      4.76560     19.27079         0.042215      0.019053     -0.039987
      4.20043      4.01872     16.77780        -0.118772     -0.110647     -0.183629
      0.02614      0.01726     12.15283         0.016752      0.079867     -0.115335
      5.59856      1.60561     16.77358        -0.016976      0.012884     -0.063891
      5.59784      3.22883     14.47469         0.009979      0.213519     -0.272361
      2.81509      3.22856     14.48986        -0.004521     -0.006654     -0.204724
      4.20723      0.82179     14.47440        -0.149905     -0.125310     -0.250092
      1.42712      0.82077     14.48059         0.138439     -0.106328     -0.266191
      4.18682      2.42485     12.13498         0.074647     -0.028960     -0.103274
      1.41593      2.42408     12.14869        -0.054424     -0.041435     -0.112052
      2.80985      1.60013     16.76732         0.031351      0.108613     -0.128967
      7.01706      4.01961     16.82989         0.159143     -0.082510     -0.240915
 -----------------------------------------------------------------------------------
    total drift:                                0.016635      0.006366      0.006758


--------------------------------------------------------------------------------------------------------



  FREE ENERGIE OF THE ION-ELECTRON SYSTEM (eV)
  ---------------------------------------------------
  free  energy   TOTEN  =      -115.12245199 eV

  energy  without entropy=     -115.08538806  energy(sigma->0) =     -115.11009734
 


--------------------------------------------------------------------------------------------------------


    POTLOK:  cpu time    0.0260: real time    0.0260


--------------------------------------------------------------------------------------------------------


     LOOP+:  cpu time  596.0187: real time  596.1907
    4ORBIT:  cpu time    0.0000: real time    0.0000

 total amount of memory used by VASP MPI-rank0   164313. kBytes
=======================================================================

   base      :      30000. kBytes
   nonlr-proj:       2360. kBytes
   fftplans  :       2967. kBytes
   grid      :       6321. kBytes
   one-center:         93. kBytes
   wavefun   :     122572. kBytes
 
  
  
 General timing and accounting informations for this job:
 ========================================================
  
                  Total CPU time used (sec):      603.527
                            User time (sec):      599.711
                          System time (sec):        3.816
                         Elapsed time (sec):      603.904
  
                   Maximum memory used (kb):      204756.
                   Average memory used (kb):           0.
  
                          Minor page faults:        84617
                          Major page faults:            0
                 Voluntary context switches:          881
