       N       E                     dE             d eps       ncg     rms          rms(c)
DAV:   1     0.102855685961E+04    0.10286E+04   -0.58317E+04 19288   0.103E+03
DAV:   2    -0.301491056305E+02   -0.10587E+04   -0.98402E+03 24064   0.259E+02
DAV:   3    -0.121288519822E+03   -0.91139E+02   -0.84300E+02 22880   0.757E+01
DAV:   4    -0.125739699631E+03   -0.44512E+01   -0.42473E+01 25556   0.170E+01
DAV:   5    -0.125880308892E+03   -0.14061E+00   -0.13951E+00 26860   0.297E+00    0.431E+01
DAV:   6    -0.118193715286E+03    0.76866E+01   -0.36821E+01 23044   0.248E+01    0.320E+01
DAV:   7    -0.136929646136E+03   -0.18736E+02   -0.78073E+01 24936   0.517E+01    0.424E+01
DAV:   8    -0.116955423244E+03    0.19974E+02   -0.43767E+01 26876   0.372E+01    0.119E+01
DAV:   9    -0.119139353902E+03   -0.21839E+01   -0.27334E+01 22740   0.269E+01    0.191E+01
DAV:  10    -0.123959391521E+03   -0.48200E+01   -0.33432E+01 26992   0.288E+01    0.265E+01
DAV:  11    -0.116207175175E+03    0.77522E+01   -0.26605E+01 30620   0.245E+01    0.895E+00
DAV:  12    -0.115650401986E+03    0.55677E+00   -0.25069E+00 27264   0.602E+00    0.389E+00
DAV:  13    -0.115598457100E+03    0.51945E-01   -0.44841E-01 28176   0.309E+00    0.339E+00
DAV:  14    -0.115553874784E+03    0.44582E-01   -0.33509E-01 27756   0.223E+00    0.214E+00
DAV:  15    -0.115531044873E+03    0.22830E-01   -0.12521E-01 22068   0.149E+00    0.129E+00
DAV:  16    -0.115528296380E+03    0.27485E-02   -0.58373E-02 22392   0.110E+00    0.959E-01
DAV:  17    -0.115524222637E+03    0.40737E-02   -0.27300E-02 21264   0.775E-01    0.757E-01
DAV:  18    -0.115521734019E+03    0.24886E-02   -0.18039E-02 21924   0.621E-01    0.452E-01
DAV:  19    -0.115520503464E+03    0.12306E-02   -0.21794E-03 21136   0.212E-01    0.303E-01
DAV:  20    -0.115519792227E+03    0.71124E-03   -0.14323E-03 22080   0.160E-01    0.178E-01
DAV:  21    -0.115519734164E+03    0.58063E-04   -0.60995E-04 21536   0.109E-01    0.110E-01
DAV:  22    -0.115519737166E+03   -0.30022E-05   -0.13858E-04 21696   0.558E-02    0.104E-01
DAV:  23    -0.115519751720E+03   -0.14554E-04   -0.13750E-04 21880   0.582E-02    0.809E-02
DAV:  24    -0.115519874029E+03   -0.12231E-03   -0.20912E-04 23628   0.622E-02    0.433E-02
DAV:  25    -0.115519947751E+03   -0.73722E-04   -0.64272E-05 16460   0.335E-02    0.262E-02
DAV:  26    -0.115520073951E+03   -0.12620E-03   -0.50961E-05 15280   0.304E-02    0.215E-02
DAV:  27    -0.115520217241E+03   -0.14329E-03   -0.31941E-05 16200   0.204E-02    0.222E-02
DAV:  28    -0.115520382883E+03   -0.16564E-03   -0.26384E-05 15256   0.181E-02    0.201E-02
DAV:  29    -0.115520431960E+03   -0.49078E-04   -0.52065E-06 12328   0.995E-03    0.189E-02
DAV:  30    -0.115520501427E+03   -0.69467E-04   -0.37563E-06 12252   0.930E-03    0.140E-02
DAV:  31    -0.115520620535E+03   -0.11911E-03   -0.64235E-06 12504   0.941E-03    0.103E-02
DAV:  32    -0.115520663780E+03   -0.43245E-04   -0.27625E-06 12320   0.743E-03    0.506E-03
DAV:  33    -0.115520696183E+03   -0.32403E-04   -0.17522E-06 12096   0.501E-03    0.247E-03
DAV:  34    -0.115520725604E+03   -0.29421E-04   -0.11941E-06 12180   0.428E-03    0.338E-03
DAV:  35    -0.115520738386E+03   -0.12782E-04   -0.47708E-07 11592   0.270E-03    0.267E-03
DAV:  36    -0.115520742033E+03   -0.36473E-05   -0.16968E-07 10688   0.152E-03
   1 F= -.11551497E+03 E0= -.11550775E+03  d E =-.216626E-01
