 vasp.5.4.4.18Apr17-6-g9f103f2a35 (build Apr 28 2017 10:53:45) complex          
  
 executed on             LinuxIFC date 2019.07.18  18:30:03
 running on   16 total cores
 distrk:  each k-point on   16 cores,    1 groups
 distr:  one band on NCORES_PER_BAND=   4 cores,    4 groups


--------------------------------------------------------------------------------------------------------


 INCAR:
 POTCAR:    PAW_PBE Au 04Oct2007                  
 POTCAR:    PAW_PBE C 08Apr2002                   
 POTCAR:    PAW_PBE H 15Jun2001                   
 POTCAR:    PAW_PBE Ir 06Sep2000                  
 POTCAR:    PAW_PBE Pt 04Feb2005                  
 POTCAR:    PAW_PBE Au 04Oct2007                  
   VRHFIN =Au: s1d10                                                            
   LEXCH  = PE                                                                  
   EATOM  =   926.0867 eV,   68.0654 Ry                                         
                                                                                
   TITEL  = PAW_PBE Au 04Oct2007                                                
   LULTRA =        F    use ultrasoft PP ?                                      
   IUNSCR =        1    unscreen: 0-lin 1-nonlin 2-no                           
   RPACOR =    2.330    partial core radius                                     
   POMASS =  196.966; ZVAL   =   11.000    mass and valenz                      
   RCORE  =    2.500    outmost cutoff radius                                   
   RWIGS  =    2.840; RWIGS  =    1.503    wigner-seitz radius (au A)           
   ENMAX  =  229.943; ENMIN  =  172.457 eV                                      
   ICORE  =        3    local potential                                         
   LCOR   =        T    correct aug charges                                     
   LPAW   =        T    paw PP                                                  
   EAUG   =  356.670                                                            
   DEXC   =    0.000                                                            
   RMAX   =    2.562    core radius for proj-oper                               
   RAUG   =    1.300    factor for augmentation sphere                          
   RDEP   =    2.598    radius for radial grids                                 
   RDEPT  =    2.193    core radius for aug-charge                              
                                                                                
   Atomic configuration                                                         
   16 entries                                                                   
     n  l   j            E        occ.                                          
     1  0  0.50    -80748.5001   2.0000                                         
     2  0  0.50    -14244.7466   2.0000                                         
     2  1  1.50    -12310.9591   6.0000                                         
     3  0  0.50     -3362.1768   2.0000                                         
     3  1  1.50     -2801.5463   6.0000                                         
     3  2  2.50     -2203.8206  10.0000                                         
     4  0  0.50      -729.8168   2.0000                                         
     4  1  1.50      -546.0527   6.0000                                         
     4  2  2.50      -325.7302  10.0000                                         
     4  3  3.50       -81.1472  14.0000                                         
     5  0  0.50      -108.3201   2.0000                                         
     5  1  1.50       -59.7479   6.0000                                         
     5  2  2.50        -6.8783  10.0000                                         
     6  0  0.50        -5.7602   1.0000                                         
     6  1  1.50        -6.8029   0.0000                                         
     5  3  2.50        -1.3606   0.0000                                         
   Description                                                                  
     l       E           TYP  RCUT    TYP  RCUT                                 
     2     -6.8782861     23  2.500                                             
     2     -8.2388687     23  2.500                                             
     0     -5.7601759     23  2.500                                             
     0     -0.8493231     23  2.500                                             
     1     -2.7211652     23  2.500                                             
     1     27.2116520     23  2.500                                             
     3     -1.3605826     23  2.500                                             
  local pseudopotential read in
  partial core-charges read in
  partial kinetic energy density read in
  atomic valenz-charges read in
  non local Contribution for L=           2  read in
    real space projection operators read in
  non local Contribution for L=           2  read in
    real space projection operators read in
  non local Contribution for L=           0  read in
    real space projection operators read in
  non local Contribution for L=           0  read in
    real space projection operators read in
  non local Contribution for L=           1  read in
    real space projection operators read in
  non local Contribution for L=           1  read in
    real space projection operators read in
    PAW grid and wavefunctions read in
 
   number of l-projection  operators is LMAX  =           6
   number of lm-projection operators is LMMAX =          18
 
 POTCAR:    PAW_PBE C 08Apr2002                   
   VRHFIN =C: s2p2                                                              
   LEXCH  = PE                                                                  
   EATOM  =   147.1560 eV,   10.8157 Ry                                         
                                                                                
   TITEL  = PAW_PBE C 08Apr2002                                                 
   LULTRA =        F    use ultrasoft PP ?                                      
   IUNSCR =        1    unscreen: 0-lin 1-nonlin 2-no                           
   RPACOR =    1.200    partial core radius                                     
   POMASS =   12.011; ZVAL   =    4.000    mass and valenz                      
   RCORE  =    1.500    outmost cutoff radius                                   
   RWIGS  =    1.630; RWIGS  =    0.863    wigner-seitz radius (au A)           
   ENMAX  =  400.000; ENMIN  =  300.000 eV                                      
   ICORE  =        2    local potential                                         
   LCOR   =        T    correct aug charges                                     
   LPAW   =        T    paw PP                                                  
   EAUG   =  644.873                                                            
   DEXC   =    0.000                                                            
   RMAX   =    1.529    core radius for proj-oper                               
   RAUG   =    1.300    factor for augmentation sphere                          
   RDEP   =    1.501    radius for radial grids                                 
   RDEPT  =    1.300    core radius for aug-charge                              
                                                                                
   Atomic configuration                                                         
    4 entries                                                                   
     n  l   j            E        occ.                                          
     1  0  0.50      -273.3789   2.0000                                         
     2  0  0.50       -13.7508   2.0000                                         
     2  1  0.50        -5.2854   2.0000                                         
     3  2  1.50        -5.4423   0.0000                                         
   Description                                                                  
     l       E           TYP  RCUT    TYP  RCUT                                 
     0    -13.7508458     23  1.200                                             
     0     -8.2022199     23  1.200                                             
     1     -5.2854383     23  1.500                                             
     1     34.0145650     23  1.500                                             
     2     -5.4423304      7  1.500                                             
  local pseudopotential read in
  partial core-charges read in
  partial kinetic energy density read in
  atomic valenz-charges read in
  non local Contribution for L=           0  read in
    real space projection operators read in
  non local Contribution for L=           0  read in
    real space projection operators read in
  non local Contribution for L=           1  read in
    real space projection operators read in
  non local Contribution for L=           1  read in
    real space projection operators read in
    PAW grid and wavefunctions read in
 
   number of l-projection  operators is LMAX  =           4
   number of lm-projection operators is LMMAX =           8
 
 POTCAR:    PAW_PBE H 15Jun2001                   
   VRHFIN =H: ultrasoft test                                                    
   LEXCH  = PE                                                                  
   EATOM  =    12.4884 eV,    0.9179 Ry                                         
                                                                                
   TITEL  = PAW_PBE H 15Jun2001                                                 
   LULTRA =        F    use ultrasoft PP ?                                      
   IUNSCR =        0    unscreen: 0-lin 1-nonlin 2-no                           
   RPACOR =    0.000    partial core radius                                     
   POMASS =    1.000; ZVAL   =    1.000    mass and valenz                      
   RCORE  =    1.100    outmost cutoff radius                                   
   RWIGS  =    0.700; RWIGS  =    0.370    wigner-seitz radius (au A)           
   ENMAX  =  250.000; ENMIN  =  200.000 eV                                      
   RCLOC  =    0.701    cutoff for local pot                                    
   LCOR   =        T    correct aug charges                                     
   LPAW   =        T    paw PP                                                  
   EAUG   =  400.000                                                            
   RMAX   =    1.123    core radius for proj-oper                               
   RAUG   =    1.200    factor for augmentation sphere                          
   RDEP   =    1.112    radius for radial grids                                 
   RDEPT  =    0.926    core radius for aug-charge                              
                                                                                
   Atomic configuration                                                         
    2 entries                                                                   
     n  l   j            E        occ.                                          
     1  0  0.50        -6.4927   1.0000                                         
     2  1  0.50        -3.4015   0.0000                                         
   Description                                                                  
     l       E           TYP  RCUT    TYP  RCUT                                 
     0     -6.4927494     23  1.100                                             
     0      6.8029130     23  1.100                                             
     1     -4.0817478     23  1.100                                             
  local pseudopotential read in
  atomic valenz-charges read in
  non local Contribution for L=           0  read in
    real space projection operators read in
  non local Contribution for L=           0  read in
    real space projection operators read in
  non local Contribution for L=           1  read in
    real space projection operators read in
    PAW grid and wavefunctions read in
 
   number of l-projection  operators is LMAX  =           3
   number of lm-projection operators is LMMAX =           5
 
 POTCAR:    PAW_PBE Ir 06Sep2000                  
   VRHFIN =Ir: s1d8                                                             
   LEXCH  = PE                                                                  
   EATOM  =   560.1833 eV,   41.1723 Ry                                         
                                                                                
   TITEL  = PAW_PBE Ir 06Sep2000                                                
   LULTRA =        F    use ultrasoft PP ?                                      
   IUNSCR =        1    unscreen: 0-lin 1-nonlin 2-no                           
   RPACOR =    2.250    partial core radius                                     
   POMASS =  192.220; ZVAL   =    9.000    mass and valenz                      
   RCORE  =    2.600    outmost cutoff radius                                   
   RWIGS  =    2.690; RWIGS  =    1.423    wigner-seitz radius (au A)           
   ENMAX  =  210.864; ENMIN  =  158.148 eV                                      
   RCLOC  =    1.857    cutoff for local pot                                    
   LCOR   =        T    correct aug charges                                     
   LPAW   =        T    paw PP                                                  
   EAUG   =  318.962                                                            
   DEXC   =    0.000                                                            
   RMAX   =    2.667    core radius for proj-oper                               
   RAUG   =    1.300    factor for augmentation sphere                          
   RDEP   =    2.748    radius for radial grids                                 
   RDEPT  =    2.300    core radius for aug-charge                              
                                                                                
   Atomic configuration                                                         
   16 entries                                                                   
     n  l   j            E        occ.                                          
     1  0  0.50    -76100.0449   2.0000                                         
     2  0  0.50    -13308.1683   2.0000                                         
     2  1  1.50    -11558.0021   6.0000                                         
     3  0  0.50     -3110.7274   2.0000                                         
     3  1  1.50     -2599.2109   6.0000                                         
     3  2  2.50     -2037.1515  10.0000                                         
     4  0  0.50      -661.6001   2.0000                                         
     4  1  1.50      -493.8981   6.0000                                         
     4  2  2.50      -288.1909  10.0000                                         
     4  3  3.50       -59.5718  14.0000                                         
     5  0  0.50       -95.3879   2.0000                                         
     5  1  1.50       -52.2747   6.0000                                         
     5  2  2.50        -5.4180   8.0000                                         
     6  0  0.50        -5.5479   1.0000                                         
     6  1  1.50        -6.8029   0.0000                                         
     5  3  2.50        -1.3606   0.0000                                         
   Description                                                                  
     l       E           TYP  RCUT    TYP  RCUT                                 
     2     -5.4179967     23  2.600                                             
     2     -6.7785793     23  2.600                                             
     0     -5.5478636     23  2.600                                             
     0      2.2542272     23  2.600                                             
     1     -2.7211652     23  2.600                                             
     1     20.4087390     23  2.600                                             
  local pseudopotential read in
  partial core-charges read in
  partial kinetic energy density read in
  atomic valenz-charges read in
  non local Contribution for L=           2  read in
    real space projection operators read in
  non local Contribution for L=           2  read in
    real space projection operators read in
  non local Contribution for L=           0  read in
    real space projection operators read in
  non local Contribution for L=           0  read in
    real space projection operators read in
  non local Contribution for L=           1  read in
    real space projection operators read in
  non local Contribution for L=           1  read in
    real space projection operators read in
    PAW grid and wavefunctions read in
 
   number of l-projection  operators is LMAX  =           6
   number of lm-projection operators is LMMAX =          18
 
 POTCAR:    PAW_PBE Pt 04Feb2005                  
   VRHFIN =Pt: s1d9                                                             
   LEXCH  = PE                                                                  
   EATOM  =   729.1176 eV,   53.5886 Ry                                         
                                                                                
   TITEL  = PAW_PBE Pt 04Feb2005                                                
   LULTRA =        F    use ultrasoft PP ?                                      
   IUNSCR =        1    unscreen: 0-lin 1-nonlin 2-no                           
   RPACOR =    2.330    partial core radius                                     
   POMASS =  195.080; ZVAL   =   10.000    mass and valenz                      
   RCORE  =    2.600    outmost cutoff radius                                   
   RWIGS  =    2.750; RWIGS  =    1.455    wigner-seitz radius (au A)           
   ENMAX  =  230.283; ENMIN  =  172.712 eV                                      
   ICORE  =        3    local potential                                         
   LCOR   =        T    correct aug charges                                     
   LPAW   =        T    paw PP                                                  
   EAUG   =  358.966                                                            
   DEXC   =    0.000                                                            
   RMAX   =    2.658    core radius for proj-oper                               
   RAUG   =    1.300    factor for augmentation sphere                          
   RDEP   =    2.761    radius for radial grids                                 
   RDEPT  =    2.203    core radius for aug-charge                              
                                                                                
   Atomic configuration                                                         
   16 entries                                                                   
     n  l   j            E        occ.                                          
     1  0  0.50    -78401.1885   2.0000                                         
     2  0  0.50    -13770.7750   2.0000                                         
     2  1  1.50    -11931.0468   6.0000                                         
     3  0  0.50     -3234.7234   2.0000                                         
     3  1  1.50     -2699.2216   6.0000                                         
     3  2  2.50     -2119.5714  10.0000                                         
     4  0  0.50      -695.1528   2.0000                                         
     4  1  1.50      -519.6034   6.0000                                         
     4  2  2.50      -306.6786  10.0000                                         
     4  3  3.50       -70.1041  14.0000                                         
     5  0  0.50      -101.7747   2.0000                                         
     5  1  1.50       -55.9873   6.0000                                         
     5  2  2.50        -6.1423   9.0000                                         
     6  0  0.50        -5.6573   1.0000                                         
     6  1  1.50        -6.8029   0.0000                                         
     5  3  2.50        -1.3606   0.0000                                         
   Description                                                                  
     l       E           TYP  RCUT    TYP  RCUT                                 
     2     -6.1423404     23  2.500                                             
     2     -7.5029230     23  2.500                                             
     0     -5.6573207     23  2.500                                             
     0      0.7416693     23  2.500                                             
     1     -2.7211652     23  2.600                                             
     1     20.4087390     23  2.600                                             
     3     -1.3605826     23  2.500                                             
  local pseudopotential read in
  partial core-charges read in
  partial kinetic energy density read in
  atomic valenz-charges read in
  non local Contribution for L=           2  read in
    real space projection operators read in
  non local Contribution for L=           2  read in
    real space projection operators read in
  non local Contribution for L=           0  read in
    real space projection operators read in
  non local Contribution for L=           0  read in
    real space projection operators read in
  non local Contribution for L=           1  read in
    real space projection operators read in
  non local Contribution for L=           1  read in
    real space projection operators read in
    PAW grid and wavefunctions read in
 
   number of l-projection  operators is LMAX  =           6
   number of lm-projection operators is LMMAX =          18
 
 Optimization of the real space projectors (new method)

 maximal supplied QI-value         = 15.12
 optimisation between [QCUT,QGAM] = [  9.52, 19.05] = [ 25.40,101.61] Ry 
 Optimized for a Real-space Cutoff    1.57 Angstroem

   l    n(q)    QCUT    max X(q) W(low)/X(q) W(high)/X(q)  e(spline) 
   2      8     9.524    60.898    0.38E-03    0.43E-04    0.84E-07
   2      8     9.524    58.894    0.38E-03    0.47E-04    0.88E-07
   0      9     9.524   109.617    0.60E-04    0.64E-04    0.80E-07
   0      9     9.524    75.026    0.59E-04    0.62E-04    0.78E-07
   1      8     9.524    16.344    0.99E-04    0.18E-03    0.87E-07
   1      8     9.524    10.160    0.78E-04    0.15E-03    0.74E-07
 Optimization of the real space projectors (new method)

 maximal supplied QI-value         = 25.13
 optimisation between [QCUT,QGAM] = [  9.55, 19.10] = [ 25.54,102.17] Ry 
 Optimized for a Real-space Cutoff    1.39 Angstroem

   l    n(q)    QCUT    max X(q) W(low)/X(q) W(high)/X(q)  e(spline) 
   0      8     9.551   115.676    0.39E-03    0.54E-03    0.29E-06
   0      8     9.551    87.132    0.39E-03    0.54E-03    0.28E-06
   1      7     9.551     4.429    0.35E-03    0.51E-04    0.29E-06
   1      7     9.551     2.733    0.22E-03    0.42E-04    0.31E-06
 Optimization of the real space projectors (new method)

 maximal supplied QI-value         = 34.20
 optimisation between [QCUT,QGAM] = [  9.58, 19.15] = [ 25.68,102.74] Ry 
 Optimized for a Real-space Cutoff    1.31 Angstroem

   l    n(q)    QCUT    max X(q) W(low)/X(q) W(high)/X(q)  e(spline) 
   0      7     9.577    19.460    0.33E-03    0.12E-03    0.35E-06
   0      7     9.577    12.209    0.33E-03    0.11E-03    0.33E-06
   1      7     9.577     4.655    0.39E-03    0.14E-02    0.33E-06
 Optimization of the real space projectors (new method)

 maximal supplied QI-value         = 14.36
 optimisation between [QCUT,QGAM] = [  9.48, 19.10] = [ 25.16,102.17] Ry 
 Optimized for a Real-space Cutoff    1.57 Angstroem

   l    n(q)    QCUT    max X(q) W(low)/X(q) W(high)/X(q)  e(spline) 
   2      8     9.479   134.116    0.18E-03    0.75E-03    0.26E-06
   2      8     9.479   130.192    0.18E-03    0.75E-03    0.27E-06
   0      9     9.479    60.310    0.39E-03    0.24E-03    0.63E-07
   0      9     9.479    39.218    0.36E-03    0.22E-03    0.59E-07
   1      8     9.479    18.439    0.20E-03    0.15E-03    0.16E-06
   1      8     9.479    12.760    0.16E-03    0.11E-03    0.13E-06
 Optimization of the real space projectors (new method)

 maximal supplied QI-value         = 14.36
 optimisation between [QCUT,QGAM] = [  9.48, 19.10] = [ 25.16,102.17] Ry 
 Optimized for a Real-space Cutoff    1.57 Angstroem

   l    n(q)    QCUT    max X(q) W(low)/X(q) W(high)/X(q)  e(spline) 
   2      8     9.479    66.195    0.35E-03    0.53E-04    0.87E-07
   2      8     9.479    64.643    0.35E-03    0.57E-04    0.91E-07
   0      9     9.479    95.520    0.50E-04    0.62E-04    0.81E-07
   0      9     9.479    63.403    0.49E-04    0.60E-04    0.78E-07
   1      8     9.479    19.961    0.10E-03    0.87E-04    0.11E-06
   1      8     9.479    13.289    0.88E-04    0.71E-04    0.97E-07
  PAW_PBE Au 04Oct2007                  :
 energy of atom  1       EATOM= -926.0867
 kinetic energy error for atom=    0.0152 (will be added to EATOM!!)
  PAW_PBE C 08Apr2002                   :
 energy of atom  2       EATOM= -147.1560
 kinetic energy error for atom=    0.0854 (will be added to EATOM!!)
  PAW_PBE H 15Jun2001                   :
 energy of atom  3       EATOM=  -12.4884
 kinetic energy error for atom=    0.0203 (will be added to EATOM!!)
  PAW_PBE Ir 06Sep2000                  :
 energy of atom  4       EATOM= -560.1833
 kinetic energy error for atom=    0.0056 (will be added to EATOM!!)
  PAW_PBE Pt 04Feb2005                  :
 energy of atom  5       EATOM= -729.1176
 kinetic energy error for atom=    0.0144 (will be added to EATOM!!)
 
 
 POSCAR: Au  C  H Ir Pt                          
  positions in cartesian coordinates
  No initial velocities read in
 exchange correlation table for  LEXCH =        8
   RHO(1)=    0.500       N(1)  =     2000
   RHO(2)=  100.500       N(2)  =     4000
 


--------------------------------------------------------------------------------------------------------


 ion  position               nearest neighbor table
   1  0.341  0.323  0.543-  21 2.77  13 2.77  20 2.78  20 2.78  17 2.78  13 2.79  21 2.79   8 2.80
                            15 2.80  16 2.81  10 2.81   9 2.86
   2  0.003  0.979  0.693-   4 1.10   5 1.10   6 1.10  11 2.07
   3  0.035  0.465  0.671-   9 1.55
   4  0.922  0.192  0.705-   2 1.10
   5  0.866  0.900  0.704-   2 1.10
   6  0.216  0.843  0.705-   2 1.10
   7  0.497  0.001  0.392-  12 2.76  19 2.77  18 2.78  18 2.78  19 2.79  12 2.79  16 2.82  14 2.84
                            17 2.84
   8  0.516  0.482  0.617-  13 2.75   9 2.78  10 2.78  10 2.78  11 2.78   9 2.79  20 2.79   1 2.80
                            11 2.80
   9  0.016  0.482  0.621-   3 1.55   8 2.78  10 2.78  10 2.78  11 2.78   8 2.79  11 2.79   1 2.86
                            13 2.87  21 2.88
  10  0.516  0.982  0.617-  21 2.75  20 2.77   8 2.78   9 2.78  11 2.78   8 2.78   9 2.78  11 2.80
                             1 2.81
  11  0.014  0.983  0.626-   2 2.07  10 2.78   9 2.78   8 2.78   9 2.79   8 2.80  10 2.80  20 2.97
                            21 2.99  13 3.02
  12  0.000  1.000  0.393-   7 2.76  18 2.76  19 2.78  19 2.78  18 2.79   7 2.79  16 2.81  17 2.84
                            15 2.86
  13  0.843  0.321  0.544-  20 2.75   8 2.75  21 2.77   1 2.77  17 2.78   1 2.79  21 2.79  20 2.80
                            16 2.84  14 2.86   9 2.87  11 3.02
  14  0.669  0.663  0.468-  15 2.78  16 2.78  16 2.78  17 2.78  17 2.78  15 2.78  19 2.81  18 2.82
                             7 2.84  20 2.84  21 2.84  13 2.86
  15  0.168  0.663  0.469-  17 2.78  16 2.78  14 2.78  14 2.78  17 2.78  16 2.78  21 2.78   1 2.80
                            20 2.81  18 2.84  19 2.85  12 2.86
  16  0.669  0.163  0.468-  17 2.78  15 2.78  14 2.78  14 2.78  15 2.78  17 2.78  12 2.81   1 2.81
                             7 2.82  18 2.83  13 2.84  21 2.86
  17  0.168  0.163  0.469-  16 2.78  15 2.78  14 2.78  14 2.78  15 2.78  16 2.78  13 2.78   1 2.78
                            20 2.83   7 2.84  12 2.84  19 2.86
  18  0.497  0.502  0.392-  12 2.76  19 2.77   7 2.78   7 2.78  19 2.79  12 2.79  14 2.82  16 2.83
                            15 2.84
  19  0.000  0.500  0.393-  18 2.77   7 2.77  12 2.78  12 2.78   7 2.79  18 2.79  14 2.81  15 2.85
                            17 2.86
  20  0.337  0.825  0.544-  13 2.75  21 2.75  10 2.77   1 2.78   1 2.78   8 2.79  21 2.80  13 2.80
                            15 2.81  17 2.83  14 2.84  11 2.97
  21  0.843  0.823  0.544-  10 2.75  20 2.75  13 2.77   1 2.77  15 2.78   1 2.79  13 2.79  20 2.80
                            14 2.84  16 2.86   9 2.88  11 2.99
 
  LATTYP: Found a hexagonal cell.
 ALAT       =     5.5578593001
 C/A-ratio  =     5.5429542221
  
  Lattice vectors:
  
 A1 = (   2.7789296501,  -4.8132473446,   0.0000000000)
 A2 = (  -5.5578593001,   0.0000000000,   0.0000000000)
 A3 = (   0.0000000000,   0.0000000000, -30.8069596737)


Analysis of symmetry for initial positions (statically):
=====================================================================
 Subroutine PRICEL returns:
 Original cell was already a primitive cell.
 

 Routine SETGRP: Setting up the symmetry group for a 
 hexagonal supercell.


 Subroutine GETGRP returns: Found  1 space group operations
 (whereof  1 operations were pure point group operations)
 out of a pool of 24 trial point group operations.


The static configuration has the point symmetry C_1 .


Analysis of symmetry for dynamics (positions and initial velocities):
=====================================================================
 Subroutine PRICEL returns:
 Original cell was already a primitive cell.
 

 Routine SETGRP: Setting up the symmetry group for a 
 hexagonal supercell.


 Subroutine GETGRP returns: Found  1 space group operations
 (whereof  1 operations were pure point group operations)
 out of a pool of 24 trial point group operations.


The dynamic configuration has the point symmetry C_1 .


 Subroutine INISYM returns: Found  1 space group operations
 (whereof  1 operations are pure point group operations),
 and found     1 'primitive' translations

 
 
 KPOINTS: 0.6.Ir1.Au9                             

Automatic generation of k-mesh.
Space group operators:
 irot       det(A)        alpha          n_x          n_y          n_z        tau_x        tau_y        tau_z
    1     1.000000     0.000001     1.000000     0.000000     0.000000     0.000000     0.000000     0.000000
 
 Subroutine IBZKPT returns following result:
 ===========================================
 
 Found     96 irreducible k-points:
 
 Following reciprocal coordinates:
            Coordinates               Weight
  0.062500  0.062500  0.000000     16.000000
  0.000000  0.062500  0.000000     16.000000
 -0.062500  0.000000  0.000000     16.000000
  0.187500  0.062500  0.000000     16.000000
  0.125000  0.187500  0.000000     16.000000
 -0.062500  0.125000  0.000000     16.000000
  0.125000 -0.062500  0.000000     16.000000
 -0.062500 -0.187500  0.000000     16.000000
 -0.187500 -0.125000  0.000000     16.000000
  0.312500  0.062500  0.000000     16.000000
  0.250000  0.312500  0.000000     16.000000
 -0.062500  0.250000  0.000000     16.000000
  0.250000 -0.062500  0.000000     16.000000
 -0.062500 -0.312500  0.000000     16.000000
 -0.312500 -0.250000  0.000000     16.000000
  0.437500  0.062500  0.000000     16.000000
  0.375000  0.437500  0.000000     16.000000
 -0.062500  0.375000  0.000000     16.000000
  0.375000 -0.062500  0.000000     16.000000
 -0.062500 -0.437500  0.000000     16.000000
 -0.437500 -0.375000  0.000000     16.000000
 -0.437500  0.062500  0.000000     16.000000
  0.500000 -0.437500  0.000000     16.000000
 -0.062500  0.500000  0.000000     16.000000
  0.500000 -0.062500  0.000000     16.000000
 -0.062500  0.437500  0.000000     16.000000
  0.437500  0.500000  0.000000     16.000000
 -0.312500  0.062500  0.000000     16.000000
 -0.375000 -0.312500  0.000000     16.000000
 -0.062500 -0.375000  0.000000     16.000000
 -0.375000 -0.062500  0.000000     16.000000
 -0.062500  0.312500  0.000000     16.000000
  0.312500  0.375000  0.000000     16.000000
 -0.187500  0.062500  0.000000     16.000000
 -0.250000 -0.187500  0.000000     16.000000
 -0.062500 -0.250000  0.000000     16.000000
 -0.250000 -0.062500  0.000000     16.000000
 -0.062500  0.187500  0.000000     16.000000
  0.187500  0.250000  0.000000     16.000000
 -0.062500  0.062500  0.000000     16.000000
 -0.125000 -0.062500  0.000000     16.000000
 -0.062500 -0.125000  0.000000     16.000000
  0.187500  0.187500  0.000000     16.000000
  0.000000  0.187500  0.000000     16.000000
 -0.187500  0.000000  0.000000     16.000000
  0.312500  0.187500  0.000000     16.000000
  0.125000  0.312500  0.000000     16.000000
 -0.187500  0.125000  0.000000     16.000000
  0.125000 -0.187500  0.000000     16.000000
 -0.187500 -0.312500  0.000000     16.000000
 -0.312500 -0.125000  0.000000     16.000000
  0.437500  0.187500  0.000000     16.000000
  0.250000  0.437500  0.000000     16.000000
 -0.187500  0.250000  0.000000     16.000000
  0.250000 -0.187500  0.000000     16.000000
 -0.187500 -0.437500  0.000000     16.000000
 -0.437500 -0.250000  0.000000     16.000000
 -0.437500  0.187500  0.000000     16.000000
  0.375000 -0.437500  0.000000     16.000000
 -0.187500  0.375000  0.000000     16.000000
  0.375000 -0.187500  0.000000     16.000000
 -0.187500  0.437500  0.000000     16.000000
  0.437500 -0.375000  0.000000     16.000000
 -0.312500  0.187500  0.000000     16.000000
  0.500000 -0.312500  0.000000     16.000000
 -0.187500  0.500000  0.000000     16.000000
  0.500000 -0.187500  0.000000     16.000000
 -0.187500  0.312500  0.000000     16.000000
  0.312500  0.500000  0.000000     16.000000
 -0.187500  0.187500  0.000000     16.000000
 -0.375000 -0.187500  0.000000     16.000000
 -0.187500 -0.375000  0.000000     16.000000
  0.312500  0.312500  0.000000     16.000000
  0.000000  0.312500  0.000000     16.000000
 -0.312500  0.000000  0.000000     16.000000
  0.437500  0.312500  0.000000     16.000000
  0.125000  0.437500  0.000000     16.000000
 -0.312500  0.125000  0.000000     16.000000
  0.125000 -0.312500  0.000000     16.000000
 -0.312500 -0.437500  0.000000     16.000000
 -0.437500 -0.125000  0.000000     16.000000
 -0.437500  0.312500  0.000000     16.000000
  0.250000 -0.437500  0.000000     16.000000
 -0.312500  0.250000  0.000000     16.000000
  0.250000 -0.312500  0.000000     16.000000
 -0.312500  0.437500  0.000000     16.000000
  0.437500 -0.250000  0.000000     16.000000
 -0.312500  0.312500  0.000000     16.000000
  0.375000 -0.312500  0.000000     16.000000
 -0.312500  0.375000  0.000000     16.000000
  0.437500  0.437500  0.000000     16.000000
  0.000000  0.437500  0.000000     16.000000
 -0.437500 -0.000000  0.000000     16.000000
 -0.437500  0.437500  0.000000     16.000000
  0.125000 -0.437500  0.000000     16.000000
 -0.437500  0.125000  0.000000     16.000000
 
 Following cartesian coordinates:
            Coordinates               Weight
  0.011245  0.006492  0.000000     16.000000
  0.000000  0.012985  0.000000     16.000000
 -0.011245  0.006492  0.000000     16.000000
  0.033736 -0.006492  0.000000     16.000000
  0.022491  0.025970  0.000000     16.000000
 -0.011245  0.032462  0.000000     16.000000
  0.022491 -0.025970  0.000000     16.000000
 -0.011245 -0.032462  0.000000     16.000000
 -0.033736 -0.006492  0.000000     16.000000
  0.056227 -0.019477  0.000000     16.000000
  0.044981  0.038955  0.000000     16.000000
 -0.011245  0.058432  0.000000     16.000000
  0.044981 -0.038955  0.000000     16.000000
 -0.011245 -0.058432  0.000000     16.000000
 -0.056227 -0.019477  0.000000     16.000000
  0.078717 -0.032462  0.000000     16.000000
  0.067472  0.051940  0.000000     16.000000
 -0.011245  0.084402  0.000000     16.000000
  0.067472 -0.051940  0.000000     16.000000
 -0.011245 -0.084402  0.000000     16.000000
 -0.078717 -0.032462  0.000000     16.000000
 -0.078717  0.058432  0.000000     16.000000
  0.089963 -0.142835  0.000000     16.000000
 -0.011245  0.110372  0.000000     16.000000
  0.089963 -0.064925  0.000000     16.000000
 -0.011245  0.097387  0.000000     16.000000
  0.078717  0.058432  0.000000     16.000000
 -0.056227  0.045447  0.000000     16.000000
 -0.067472 -0.025970  0.000000     16.000000
 -0.011245 -0.071417  0.000000     16.000000
 -0.067472  0.025970  0.000000     16.000000
 -0.011245  0.071417  0.000000     16.000000
  0.056227  0.045447  0.000000     16.000000
 -0.033736  0.032462  0.000000     16.000000
 -0.044981 -0.012985  0.000000     16.000000
 -0.011245 -0.045447  0.000000     16.000000
 -0.044981  0.012985  0.000000     16.000000
 -0.011245  0.045447  0.000000     16.000000
  0.033736  0.032462  0.000000     16.000000
 -0.011245  0.019477  0.000000     16.000000
 -0.022491  0.000000  0.000000     16.000000
 -0.011245 -0.019477  0.000000     16.000000
  0.033736  0.019477  0.000000     16.000000
  0.000000  0.038955  0.000000     16.000000
 -0.033736  0.019477  0.000000     16.000000
  0.056227  0.006492  0.000000     16.000000
  0.022491  0.051940  0.000000     16.000000
 -0.033736  0.045447  0.000000     16.000000
  0.022491 -0.051940  0.000000     16.000000
 -0.033736 -0.045447  0.000000     16.000000
 -0.056227  0.006492  0.000000     16.000000
  0.078717 -0.006492  0.000000     16.000000
  0.044981  0.064925  0.000000     16.000000
 -0.033736  0.071417  0.000000     16.000000
  0.044981 -0.064925  0.000000     16.000000
 -0.033736 -0.071417  0.000000     16.000000
 -0.078717 -0.006492  0.000000     16.000000
 -0.078717  0.084402  0.000000     16.000000
  0.067472 -0.129850  0.000000     16.000000
 -0.033736  0.097387  0.000000     16.000000
  0.067472 -0.077910  0.000000     16.000000
 -0.033736  0.110372  0.000000     16.000000
  0.078717 -0.123357  0.000000     16.000000
 -0.056227  0.071417  0.000000     16.000000
  0.089963 -0.116865  0.000000     16.000000
 -0.033736  0.123357  0.000000     16.000000
  0.089963 -0.090895  0.000000     16.000000
 -0.033736  0.084402  0.000000     16.000000
  0.056227  0.071417  0.000000     16.000000
 -0.033736  0.058432  0.000000     16.000000
 -0.067472  0.000000  0.000000     16.000000
 -0.033736 -0.058432  0.000000     16.000000
  0.056227  0.032462  0.000000     16.000000
  0.000000  0.064925  0.000000     16.000000
 -0.056227  0.032462  0.000000     16.000000
  0.078717  0.019477  0.000000     16.000000
  0.022491  0.077910  0.000000     16.000000
 -0.056227  0.058432  0.000000     16.000000
  0.022491 -0.077910  0.000000     16.000000
 -0.056227 -0.058432  0.000000     16.000000
 -0.078717  0.019477  0.000000     16.000000
 -0.078717  0.110372  0.000000     16.000000
  0.044981 -0.116865  0.000000     16.000000
 -0.056227  0.084402  0.000000     16.000000
  0.044981 -0.090895  0.000000     16.000000
 -0.056227  0.123357  0.000000     16.000000
  0.078717 -0.097387  0.000000     16.000000
 -0.056227  0.097387  0.000000     16.000000
  0.067472 -0.103880  0.000000     16.000000
 -0.056227  0.110372  0.000000     16.000000
  0.078717  0.045447  0.000000     16.000000
  0.000000  0.090895  0.000000     16.000000
 -0.078717  0.045447  0.000000     16.000000
 -0.078717  0.136342  0.000000     16.000000
  0.022491 -0.103880  0.000000     16.000000
 -0.078717  0.071417  0.000000     16.000000
 


--------------------------------------------------------------------------------------------------------




 Dimension of arrays:
   k-points           NKPTS =     96   k-points in BZ     NKDIM =     96   number of bands    NBANDS=    100
   number of dos      NEDOS =    301   number of ions     NIONS =     21
   non local maximal  LDIM  =      6   non local SUM 2l+1 LMDIM =     18
   total plane-waves  NPLWV = 112896
   max r-space proj   IRMAX =   2252   max aug-charges    IRDMAX=  10104
   dimension x,y,z NGX =    28 NGY =   28 NGZ =  144
   dimension x,y,z NGXF=    56 NGYF=   56 NGZF=  288
   support grid    NGXF=    56 NGYF=   56 NGZF=  288
   ions per type =               1   1   4   1  14
   NGX,Y,Z   is equivalent  to a cutoff of   8.38,  8.38,  7.77 a.u.
   NGXF,Y,Z  is equivalent  to a cutoff of  16.75, 16.75, 15.54 a.u.

 SYSTEM =  0.6.Ir1.Au9                             
 POSCAR =  Au  C  H Ir Pt                          

 Startparameter for this run:
   NWRITE =      2    write-flag & timer
   PREC   = normal    normal or accurate (medium, high low for compatibility)
   ISTART =      0    job   : 0-new  1-cont  2-samecut
   ICHARG =      2    charge: 1-file 2-atom 10-const
   ISPIN  =      1    spin polarized calculation?
   LNONCOLLINEAR =      F non collinear calculations
   LSORBIT =      F    spin-orbit coupling
   INIWAV =      1    electr: 0-lowe 1-rand  2-diag
   LASPH  =      F    aspherical Exc in radial PAW
   METAGGA=      F    non-selfconsistent MetaGGA calc.

 Electronic Relaxation 1
   ENCUT  =  350.0 eV  25.72 Ry    5.07 a.u.   8.48  8.48 46.99*2*pi/ulx,y,z
   ENINI  =  350.0     initial cutoff
   ENAUG  =  644.9 eV  augmentation charge cutoff
   NELM   =   1000;   NELMIN=  5; NELMDL= -5     # of ELM steps 
   EDIFF  = 0.1E-04   stopping-criterion for ELM
   LREAL  =      T    real-space projection
   NLSPLINE    = F    spline interpolate recip. space projectors
   LCOMPAT=      F    compatible to vasp.4.4
   GGA_COMPAT  = T    GGA compatible to vasp.4.4-vasp.4.6
   LMAXPAW     = -100 max onsite density
   LMAXMIX     =    2 max onsite mixed and CHGCAR
   VOSKOWN=      0    Vosko Wilk Nusair interpolation
   ROPT   =   -0.00050  -0.00050  -0.00050  -0.00050
   ROPT   =   -0.00050
 Ionic relaxation
   EDIFFG = 0.1E-03   stopping-criterion for IOM
   NSW    =      0    number of steps for IOM
   NBLOCK =      1;   KBLOCK =      1    inner block; outer block 
   IBRION =     -1    ionic relax: 0-MD 1-quasi-New 2-CG
   NFREE  =      0    steps in history (QN), initial steepest desc. (CG)
   ISIF   =      2    stress and relaxation
   IWAVPR =     10    prediction:  0-non 1-charg 2-wave 3-comb
   ISYM   =      2    0-nonsym 1-usesym 2-fastsym
   LCORR  =      T    Harris-Foulkes like correction to forces

   POTIM  = 0.5000    time-step for ionic-motion
   TEIN   =    0.0    initial temperature
   TEBEG  =    0.0;   TEEND  =   0.0 temperature during run
   SMASS  =  -3.00    Nose mass-parameter (am)
   estimated Nose-frequenzy (Omega)   =  0.10E-29 period in steps =****** mass=  -0.706E-27a.u.
   SCALEE = 1.0000    scale energy and forces
   NPACO  =    256;   APACO  = 16.0  distance and # of slots for P.C.
   PSTRESS=    0.0 pullay stress

  Mass of Ions in am
   POMASS = 196.97 12.01  1.00192.22195.08
  Ionic Valenz
   ZVAL   =  11.00  4.00  1.00  9.00 10.00
  Atomic Wigner-Seitz radii
   RWIGS  =  -1.00 -1.00 -1.00 -1.00 -1.00
  virtual crystal weights 
   VCA    =   1.00  1.00  1.00  1.00  1.00
   NELECT =     168.0000    total number of electrons
   NUPDOWN=      -1.0000    fix difference up-down

 DOS related values:
   EMIN   =  10.00;   EMAX   =-10.00  energy-range for DOS
   EFERMI =   0.00
   ISMEAR =     1;   SIGMA  =   0.20  broadening in eV -4-tet -1-fermi 0-gaus

 Electronic relaxation 2 (details)
   IALGO  =     38    algorithm
   LDIAG  =      T    sub-space diagonalisation (order eigenvalues)
   LSUBROT=      F    optimize rotation matrix (better conditioning)
   TURBO    =      0    0=normal 1=particle mesh
   IRESTART =      0    0=no restart 2=restart with 2 vectors
   NREBOOT  =      0    no. of reboots
   NMIN     =      0    reboot dimension
   EREF     =   0.00    reference energy to select bands
   IMIX   =      4    mixing-type and parameters
     AMIX     =   0.40;   BMIX     =  1.00
     AMIX_MAG =   1.60;   BMIX_MAG =  1.00
     AMIN     =   0.10
     WC   =   100.;   INIMIX=   1;  MIXPRE=   1;  MAXMIX= -45

 Intra band minimization:
   WEIMIN = 0.0000     energy-eigenvalue tresh-hold
   EBREAK =  0.25E-07  absolut break condition
   DEPER  =   0.30     relativ break condition  

   TIME   =   0.40     timestep for ELM

  volume/ion in A,a.u.               =      39.24       264.83
  Fermi-wavevector in a.u.,A,eV,Ry     =   0.963488  1.820729 12.630418  0.928310
  Thomas-Fermi vector in A             =   2.093038
 
 Write flags
   LWAVE        =      F    write WAVECAR
   LDOWNSAMPLE  =      F    k-point downsampling of WAVECAR
   LCHARG       =      F    write CHGCAR
   LVTOT        =      F    write LOCPOT, total local potential
   LVHAR        =      F    write LOCPOT, Hartree potential only
   LELF         =      F    write electronic localiz. function (ELF)
   LORBIT       =      0    0 simple, 1 ext, 2 COOP (PROOUT), +10 PAW based schemes


 Dipole corrections
   LMONO  =      F    monopole corrections only (constant potential shift)
   LDIPOL =      F    correct potential (dipole corrections)
   IDIPOL =      3    1-x, 2-y, 3-z, 4-all directions 
   EPSILON=  1.0000000 bulk dielectric constant

 Exchange correlation treatment:
   GGA     =    --    GGA type
   LEXCH   =     8    internal setting for exchange type
   VOSKOWN=      0    Vosko Wilk Nusair interpolation
   LHFCALC =     F    Hartree Fock is set to
   LHFONE  =     F    Hartree Fock one center treatment
   AEXX    =    0.0000 exact exchange contribution

 Linear response parameters
   LEPSILON=     F    determine dielectric tensor
   LRPA    =     F    only Hartree local field effects (RPA)
   LNABLA  =     F    use nabla operator in PAW spheres
   LVEL    =     F    velocity operator in full k-point grid
   LINTERFAST=   F  fast interpolation
   KINTER  =     0    interpolate to denser k-point grid
   CSHIFT  =0.1000    complex shift for real part using Kramers Kronig
   OMEGAMAX=  -1.0    maximum frequency
   DEG_THRESHOLD= 0.2000000E-02 threshold for treating states as degnerate
   RTIME   =   -0.100 relaxation time in fs
  (WPLASMAI=    0.000 imaginary part of plasma frequency in eV, 0.658/RTIME)
   DFIELD  = 0.0000000 0.0000000 0.0000000 field for delta impulse in time
 
 Orbital magnetization related:
   ORBITALMAG=     F  switch on orbital magnetization
   LCHIMAG   =     F  perturbation theory with respect to B field
   DQ        =  0.001000  dq finite difference perturbation B field
   LLRAUG    =     F  two centre corrections for induced B field



--------------------------------------------------------------------------------------------------------


 Static calculation
 charge density and potential will be updated during run
 non-spin polarized calculation
 Variant of blocked Davidson
 Davidson routine will perform the subspace rotation
 perform sub-space diagonalisation
    after iterative eigenvector-optimisation
 modified Broyden-mixing scheme, WC =      100.0
 initial mixing is a Kerker type mixing with AMIX =  0.4000 and BMIX =      1.0000
 Hartree-type preconditioning will be used
 using additional bands           16
 real space projection scheme for non local part
 use partial core corrections
 calculate Harris-corrections to forces 
   (improved forces if not selfconsistent)
 use gradient corrections 
 use of overlap-Matrix (Vanderbilt PP)
 Methfessel and Paxton  Order N= 1 SIGMA  =   0.20


--------------------------------------------------------------------------------------------------------


  energy-cutoff  :      350.00
  volume of cell :      824.13
      direct lattice vectors                 reciprocal lattice vectors
     5.557859300  0.000000000  0.000000000     0.179925390 -0.103879972  0.000000000
     2.778929650  4.813247345  0.000000000     0.000000000  0.207759944  0.000000000
     0.000000000  0.000000000 30.806959674     0.000000000  0.000000000  0.032460198

  length of vectors
     5.557859300  5.557859300 30.806959674     0.207759944  0.207759944  0.032460198


 
 k-points in units of 2pi/SCALE and weight: 0.6.Ir1.Au9                             
   0.01124534  0.00649250  0.00000000       0.010
   0.00000000  0.01298500  0.00000000       0.010
  -0.01124534  0.00649250  0.00000000       0.010
   0.03373601 -0.00649250  0.00000000       0.010
   0.02249067  0.02596999  0.00000000       0.010
  -0.01124534  0.03246249  0.00000000       0.010
   0.02249067 -0.02596999  0.00000000       0.010
  -0.01124534 -0.03246249  0.00000000       0.010
  -0.03373601 -0.00649250  0.00000000       0.010
   0.05622668 -0.01947749  0.00000000       0.010
   0.04498135  0.03895499  0.00000000       0.010
  -0.01124534  0.05843248  0.00000000       0.010
   0.04498135 -0.03895499  0.00000000       0.010
  -0.01124534 -0.05843248  0.00000000       0.010
  -0.05622668 -0.01947749  0.00000000       0.010
   0.07871736 -0.03246249  0.00000000       0.010
   0.06747202  0.05193999  0.00000000       0.010
  -0.01124534  0.08440248  0.00000000       0.010
   0.06747202 -0.05193999  0.00000000       0.010
  -0.01124534 -0.08440248  0.00000000       0.010
  -0.07871736 -0.03246249  0.00000000       0.010
  -0.07871736  0.05843248  0.00000000       0.010
   0.08996269 -0.14283496  0.00000000       0.010
  -0.01124534  0.11037247  0.00000000       0.010
   0.08996269 -0.06492498  0.00000000       0.010
  -0.01124534  0.09738747  0.00000000       0.010
   0.07871736  0.05843248  0.00000000       0.010
  -0.05622668  0.04544749  0.00000000       0.010
  -0.06747202 -0.02596999  0.00000000       0.010
  -0.01124534 -0.07141748  0.00000000       0.010
  -0.06747202  0.02596999  0.00000000       0.010
  -0.01124534  0.07141748  0.00000000       0.010
   0.05622668  0.04544749  0.00000000       0.010
  -0.03373601  0.03246249  0.00000000       0.010
  -0.04498135 -0.01298500  0.00000000       0.010
  -0.01124534 -0.04544749  0.00000000       0.010
  -0.04498135  0.01298500  0.00000000       0.010
  -0.01124534  0.04544749  0.00000000       0.010
   0.03373601  0.03246249  0.00000000       0.010
  -0.01124534  0.01947749  0.00000000       0.010
  -0.02249067  0.00000000  0.00000000       0.010
  -0.01124534 -0.01947749  0.00000000       0.010
   0.03373601  0.01947749  0.00000000       0.010
   0.00000000  0.03895499  0.00000000       0.010
  -0.03373601  0.01947749  0.00000000       0.010
   0.05622668  0.00649250  0.00000000       0.010
   0.02249067  0.05193999  0.00000000       0.010
  -0.03373601  0.04544749  0.00000000       0.010
   0.02249067 -0.05193999  0.00000000       0.010
  -0.03373601 -0.04544749  0.00000000       0.010
  -0.05622668  0.00649250  0.00000000       0.010
   0.07871736 -0.00649250  0.00000000       0.010
   0.04498135  0.06492498  0.00000000       0.010
  -0.03373601  0.07141748  0.00000000       0.010
   0.04498135 -0.06492498  0.00000000       0.010
  -0.03373601 -0.07141748  0.00000000       0.010
  -0.07871736 -0.00649250  0.00000000       0.010
  -0.07871736  0.08440248  0.00000000       0.010
   0.06747202 -0.12984997  0.00000000       0.010
  -0.03373601  0.09738747  0.00000000       0.010
   0.06747202 -0.07790998  0.00000000       0.010
  -0.03373601  0.11037247  0.00000000       0.010
   0.07871736 -0.12335747  0.00000000       0.010
  -0.05622668  0.07141748  0.00000000       0.010
   0.08996269 -0.11686497  0.00000000       0.010
  -0.03373601  0.12335747  0.00000000       0.010
   0.08996269 -0.09089498  0.00000000       0.010
  -0.03373601  0.08440248  0.00000000       0.010
   0.05622668  0.07141748  0.00000000       0.010
  -0.03373601  0.05843248  0.00000000       0.010
  -0.06747202  0.00000000  0.00000000       0.010
  -0.03373601 -0.05843248  0.00000000       0.010
   0.05622668  0.03246249  0.00000000       0.010
   0.00000000  0.06492498  0.00000000       0.010
  -0.05622668  0.03246249  0.00000000       0.010
   0.07871736  0.01947749  0.00000000       0.010
   0.02249067  0.07790998  0.00000000       0.010
  -0.05622668  0.05843248  0.00000000       0.010
   0.02249067 -0.07790998  0.00000000       0.010
  -0.05622668 -0.05843248  0.00000000       0.010
  -0.07871736  0.01947749  0.00000000       0.010
  -0.07871736  0.11037247  0.00000000       0.010
   0.04498135 -0.11686497  0.00000000       0.010
  -0.05622668  0.08440248  0.00000000       0.010
   0.04498135 -0.09089498  0.00000000       0.010
  -0.05622668  0.12335747  0.00000000       0.010
   0.07871736 -0.09738747  0.00000000       0.010
  -0.05622668  0.09738747  0.00000000       0.010
   0.06747202 -0.10387997  0.00000000       0.010
  -0.05622668  0.11037247  0.00000000       0.010
   0.07871736  0.04544749  0.00000000       0.010
   0.00000000  0.09089498  0.00000000       0.010
  -0.07871736  0.04544749  0.00000000       0.010
  -0.07871736  0.13634246  0.00000000       0.010
   0.02249067 -0.10387997  0.00000000       0.010
  -0.07871736  0.07141748  0.00000000       0.010
 
 k-points in reciprocal lattice and weights: 0.6.Ir1.Au9                             
   0.06250000  0.06250000  0.00000000       0.010
   0.00000000  0.06250000  0.00000000       0.010
  -0.06250000  0.00000000  0.00000000       0.010
   0.18750000  0.06250000  0.00000000       0.010
   0.12500000  0.18750000  0.00000000       0.010
  -0.06250000  0.12500000  0.00000000       0.010
   0.12500000 -0.06250000  0.00000000       0.010
  -0.06250000 -0.18750000  0.00000000       0.010
  -0.18750000 -0.12500000  0.00000000       0.010
   0.31250000  0.06250000  0.00000000       0.010
   0.25000000  0.31250000  0.00000000       0.010
  -0.06250000  0.25000000  0.00000000       0.010
   0.25000000 -0.06250000  0.00000000       0.010
  -0.06250000 -0.31250000  0.00000000       0.010
  -0.31250000 -0.25000000  0.00000000       0.010
   0.43750000  0.06250000  0.00000000       0.010
   0.37500000  0.43750000  0.00000000       0.010
  -0.06250000  0.37500000  0.00000000       0.010
   0.37500000 -0.06250000  0.00000000       0.010
  -0.06250000 -0.43750000  0.00000000       0.010
  -0.43750000 -0.37500000  0.00000000       0.010
  -0.43750000  0.06250000  0.00000000       0.010
   0.50000000 -0.43750000  0.00000000       0.010
  -0.06250000  0.50000000  0.00000000       0.010
   0.50000000 -0.06250000  0.00000000       0.010
  -0.06250000  0.43750000  0.00000000       0.010
   0.43750000  0.50000000  0.00000000       0.010
  -0.31250000  0.06250000  0.00000000       0.010
  -0.37500000 -0.31250000  0.00000000       0.010
  -0.06250000 -0.37500000  0.00000000       0.010
  -0.37500000 -0.06250000  0.00000000       0.010
  -0.06250000  0.31250000  0.00000000       0.010
   0.31250000  0.37500000  0.00000000       0.010
  -0.18750000  0.06250000  0.00000000       0.010
  -0.25000000 -0.18750000  0.00000000       0.010
  -0.06250000 -0.25000000  0.00000000       0.010
  -0.25000000 -0.06250000  0.00000000       0.010
  -0.06250000  0.18750000  0.00000000       0.010
   0.18750000  0.25000000  0.00000000       0.010
  -0.06250000  0.06250000  0.00000000       0.010
  -0.12500000 -0.06250000  0.00000000       0.010
  -0.06250000 -0.12500000  0.00000000       0.010
   0.18750000  0.18750000  0.00000000       0.010
   0.00000000  0.18750000  0.00000000       0.010
  -0.18750000  0.00000000  0.00000000       0.010
   0.31250000  0.18750000  0.00000000       0.010
   0.12500000  0.31250000  0.00000000       0.010
  -0.18750000  0.12500000  0.00000000       0.010
   0.12500000 -0.18750000  0.00000000       0.010
  -0.18750000 -0.31250000  0.00000000       0.010
  -0.31250000 -0.12500000  0.00000000       0.010
   0.43750000  0.18750000  0.00000000       0.010
   0.25000000  0.43750000  0.00000000       0.010
  -0.18750000  0.25000000  0.00000000       0.010
   0.25000000 -0.18750000  0.00000000       0.010
  -0.18750000 -0.43750000  0.00000000       0.010
  -0.43750000 -0.25000000  0.00000000       0.010
  -0.43750000  0.18750000  0.00000000       0.010
   0.37500000 -0.43750000  0.00000000       0.010
  -0.18750000  0.37500000  0.00000000       0.010
   0.37500000 -0.18750000  0.00000000       0.010
  -0.18750000  0.43750000  0.00000000       0.010
   0.43750000 -0.37500000  0.00000000       0.010
  -0.31250000  0.18750000  0.00000000       0.010
   0.50000000 -0.31250000  0.00000000       0.010
  -0.18750000  0.50000000  0.00000000       0.010
   0.50000000 -0.18750000  0.00000000       0.010
  -0.18750000  0.31250000  0.00000000       0.010
   0.31250000  0.50000000  0.00000000       0.010
  -0.18750000  0.18750000  0.00000000       0.010
  -0.37500000 -0.18750000  0.00000000       0.010
  -0.18750000 -0.37500000  0.00000000       0.010
   0.31250000  0.31250000  0.00000000       0.010
   0.00000000  0.31250000  0.00000000       0.010
  -0.31250000  0.00000000  0.00000000       0.010
   0.43750000  0.31250000  0.00000000       0.010
   0.12500000  0.43750000  0.00000000       0.010
  -0.31250000  0.12500000  0.00000000       0.010
   0.12500000 -0.31250000  0.00000000       0.010
  -0.31250000 -0.43750000  0.00000000       0.010
  -0.43750000 -0.12500000  0.00000000       0.010
  -0.43750000  0.31250000  0.00000000       0.010
   0.25000000 -0.43750000  0.00000000       0.010
  -0.31250000  0.25000000  0.00000000       0.010
   0.25000000 -0.31250000  0.00000000       0.010
  -0.31250000  0.43750000  0.00000000       0.010
   0.43750000 -0.25000000  0.00000000       0.010
  -0.31250000  0.31250000  0.00000000       0.010
   0.37500000 -0.31250000  0.00000000       0.010
  -0.31250000  0.37500000  0.00000000       0.010
   0.43750000  0.43750000  0.00000000       0.010
   0.00000000  0.43750000  0.00000000       0.010
  -0.43750000 -0.00000000  0.00000000       0.010
  -0.43750000  0.43750000  0.00000000       0.010
   0.12500000 -0.43750000  0.00000000       0.010
  -0.43750000  0.12500000  0.00000000       0.010
 
 position of ions in fractional coordinates (direct lattice) 
   0.34076750  0.32300713  0.54298302
   0.00296799  0.97947042  0.69338062
   0.03514317  0.46475115  0.67099061
   0.92212050  0.19241338  0.70533281
   0.86633692  0.89989697  0.70362272
   0.21626189  0.84282610  0.70502110
   0.49706083  0.00130281  0.39241422
   0.51640398  0.48244706  0.61712786
   0.01574768  0.48215844  0.62067827
   0.51607453  0.98223684  0.61715428
   0.01364066  0.98280816  0.62611812
   0.00043314  0.99979929  0.39262800
   0.84280458  0.32111319  0.54367514
   0.66861464  0.66281936  0.46779759
   0.16837544  0.66292567  0.46910320
   0.66887119  0.16268935  0.46751485
   0.16844786  0.16259879  0.46904471
   0.49696520  0.50155264  0.39240769
   0.00023886  0.49992227  0.39259260
   0.33741989  0.82467208  0.54406167
   0.84282966  0.82278330  0.54380117
 
 position of ions in cartesian coordinates  (Angst):
   2.79155190  1.55471320 16.72765605
   2.73837504  4.71443339 21.36094891
   1.48683156  2.23696225 20.67118067
   5.65971921  0.92613317 21.72915952
   7.31572907  4.33142670 21.67647672
   3.54410756  4.05673047 21.71955669
   2.76621457  0.00627073 12.08908900
   4.21078712  2.32213705 19.01183311
   1.42740778  2.32074782 19.12121039
   5.59783671  4.72774884 19.01264708
   2.80696762  4.73049877 19.28879576
   2.78077921  4.81228127 12.09567510
   5.57654026  1.54559721 16.74897807
   5.55799450  3.19031354 14.41142154
   2.77803078  3.19082522 14.45164327
   4.16959419  0.78306407 14.40271117
   1.38806011  0.78262818 14.44984161
   4.15584216  2.41409691 12.08888780
   1.39057637  2.40624954 12.09458434
   4.16703795  3.96935071 16.76088601
   6.97078559  3.96025954 16.75286080
 


--------------------------------------------------------------------------------------------------------


 k-point  1 :   0.0625 0.0625 0.0000  plane waves:   12325
 k-point  2 :   0.0000 0.0625 0.0000  plane waves:   12325
 k-point  3 :  -0.0625 0.0000 0.0000  plane waves:   12325
 k-point  4 :   0.1875 0.0625 0.0000  plane waves:   12294
 k-point  5 :   0.1250 0.1875 0.0000  plane waves:   12294
 k-point  6 :  -0.0625 0.1250 0.0000  plane waves:   12294
 k-point  7 :   0.1250-0.0625 0.0000  plane waves:   12294
 k-point  8 :  -0.0625-0.1875 0.0000  plane waves:   12294
 k-point  9 :  -0.1875-0.1250 0.0000  plane waves:   12294
 k-point 10 :   0.3125 0.0625 0.0000  plane waves:   12263
 k-point 11 :   0.2500 0.3125 0.0000  plane waves:   12263
 k-point 12 :  -0.0625 0.2500 0.0000  plane waves:   12263
 k-point 13 :   0.2500-0.0625 0.0000  plane waves:   12263
 k-point 14 :  -0.0625-0.3125 0.0000  plane waves:   12263
 k-point 15 :  -0.3125-0.2500 0.0000  plane waves:   12263
 k-point 16 :   0.4375 0.0625 0.0000  plane waves:   12221
 k-point 17 :   0.3750 0.4375 0.0000  plane waves:   12221
 k-point 18 :  -0.0625 0.3750 0.0000  plane waves:   12221
 k-point 19 :   0.3750-0.0625 0.0000  plane waves:   12221
 k-point 20 :  -0.0625-0.4375 0.0000  plane waves:   12221
 k-point 21 :  -0.4375-0.3750 0.0000  plane waves:   12221
 k-point 22 :  -0.4375 0.0625 0.0000  plane waves:   12211
 k-point 23 :   0.5000-0.4375 0.0000  plane waves:   12211
 k-point 24 :  -0.0625 0.5000 0.0000  plane waves:   12211
 k-point 25 :   0.5000-0.0625 0.0000  plane waves:   12211
 k-point 26 :  -0.0625 0.4375 0.0000  plane waves:   12211
 k-point 27 :   0.4375 0.5000 0.0000  plane waves:   12211
 k-point 28 :  -0.3125 0.0625 0.0000  plane waves:   12242
 k-point 29 :  -0.3750-0.3125 0.0000  plane waves:   12242
 k-point 30 :  -0.0625-0.3750 0.0000  plane waves:   12242
 k-point 31 :  -0.3750-0.0625 0.0000  plane waves:   12242
 k-point 32 :  -0.0625 0.3125 0.0000  plane waves:   12242
 k-point 33 :   0.3125 0.3750 0.0000  plane waves:   12242
 k-point 34 :  -0.1875 0.0625 0.0000  plane waves:   12280
 k-point 35 :  -0.2500-0.1875 0.0000  plane waves:   12280
 k-point 36 :  -0.0625-0.2500 0.0000  plane waves:   12280
 k-point 37 :  -0.2500-0.0625 0.0000  plane waves:   12280
 k-point 38 :  -0.0625 0.1875 0.0000  plane waves:   12280
 k-point 39 :   0.1875 0.2500 0.0000  plane waves:   12280
 k-point 40 :  -0.0625 0.0625 0.0000  plane waves:   12329
 k-point 41 :  -0.1250-0.0625 0.0000  plane waves:   12329
 k-point 42 :  -0.0625-0.1250 0.0000  plane waves:   12329
 k-point 43 :   0.1875 0.1875 0.0000  plane waves:   12277
 k-point 44 :   0.0000 0.1875 0.0000  plane waves:   12277
 k-point 45 :  -0.1875 0.0000 0.0000  plane waves:   12277
 k-point 46 :   0.3125 0.1875 0.0000  plane waves:   12288
 k-point 47 :   0.1250 0.3125 0.0000  plane waves:   12288
 k-point 48 :  -0.1875 0.1250 0.0000  plane waves:   12288
 k-point 49 :   0.1250-0.1875 0.0000  plane waves:   12288
 k-point 50 :  -0.1875-0.3125 0.0000  plane waves:   12288
 k-point 51 :  -0.3125-0.1250 0.0000  plane waves:   12288
 k-point 52 :   0.4375 0.1875 0.0000  plane waves:   12234
 k-point 53 :   0.2500 0.4375 0.0000  plane waves:   12234
 k-point 54 :  -0.1875 0.2500 0.0000  plane waves:   12234
 k-point 55 :   0.2500-0.1875 0.0000  plane waves:   12234
 k-point 56 :  -0.1875-0.4375 0.0000  plane waves:   12234
 k-point 57 :  -0.4375-0.2500 0.0000  plane waves:   12234
 k-point 58 :  -0.4375 0.1875 0.0000  plane waves:   12216
 k-point 59 :   0.3750-0.4375 0.0000  plane waves:   12216
 k-point 60 :  -0.1875 0.3750 0.0000  plane waves:   12216
 k-point 61 :   0.3750-0.1875 0.0000  plane waves:   12216
 k-point 62 :  -0.1875 0.4375 0.0000  plane waves:   12216
 k-point 63 :   0.4375-0.3750 0.0000  plane waves:   12216
 k-point 64 :  -0.3125 0.1875 0.0000  plane waves:   12215
 k-point 65 :   0.5000-0.3125 0.0000  plane waves:   12215
 k-point 66 :  -0.1875 0.5000 0.0000  plane waves:   12215
 k-point 67 :   0.5000-0.1875 0.0000  plane waves:   12215
 k-point 68 :  -0.1875 0.3125 0.0000  plane waves:   12215
 k-point 69 :   0.3125 0.5000 0.0000  plane waves:   12215
 k-point 70 :  -0.1875 0.1875 0.0000  plane waves:   12289
 k-point 71 :  -0.3750-0.1875 0.0000  plane waves:   12289
 k-point 72 :  -0.1875-0.3750 0.0000  plane waves:   12289
 k-point 73 :   0.3125 0.3125 0.0000  plane waves:   12275
 k-point 74 :   0.0000 0.3125 0.0000  plane waves:   12275
 k-point 75 :  -0.3125 0.0000 0.0000  plane waves:   12275
 k-point 76 :   0.4375 0.3125 0.0000  plane waves:   12239
 k-point 77 :   0.1250 0.4375 0.0000  plane waves:   12239
 k-point 78 :  -0.3125 0.1250 0.0000  plane waves:   12239
 k-point 79 :   0.1250-0.3125 0.0000  plane waves:   12239
 k-point 80 :  -0.3125-0.4375 0.0000  plane waves:   12239
 k-point 81 :  -0.4375-0.1250 0.0000  plane waves:   12239
 k-point 82 :  -0.4375 0.3125 0.0000  plane waves:   12235
 k-point 83 :   0.2500-0.4375 0.0000  plane waves:   12235
 k-point 84 :  -0.3125 0.2500 0.0000  plane waves:   12235
 k-point 85 :   0.2500-0.3125 0.0000  plane waves:   12235
 k-point 86 :  -0.3125 0.4375 0.0000  plane waves:   12235
 k-point 87 :   0.4375-0.2500 0.0000  plane waves:   12235
 k-point 88 :  -0.3125 0.3125 0.0000  plane waves:   12232
 k-point 89 :   0.3750-0.3125 0.0000  plane waves:   12232
 k-point 90 :  -0.3125 0.3750 0.0000  plane waves:   12232
 k-point 91 :   0.4375 0.4375 0.0000  plane waves:   12200
 k-point 92 :   0.0000 0.4375 0.0000  plane waves:   12200
 k-point 93 :  -0.4375-0.0000 0.0000  plane waves:   12200
 k-point 94 :  -0.4375 0.4375 0.0000  plane waves:   12214
 k-point 95 :   0.1250-0.4375 0.0000  plane waves:   12214
 k-point 96 :  -0.4375 0.1250 0.0000  plane waves:   12214

 maximum and minimum number of plane-waves per node :      3101     2992

 maximum number of plane-waves:     12329
 maximum index in each direction: 
   IXMAX=    8   IYMAX=    8   IZMAX=   46
   IXMIN=   -8   IYMIN=   -8   IZMIN=  -46


 real space projection operators:
  total allocation   :       5092.53 KBytes
  max/ min on nodes  :       1275.11       1270.93


 parallel 3D FFT for wavefunctions:
    minimum data exchange during FFTs selected (reduces bandwidth)
 parallel 3D FFT for charge:
    minimum data exchange during FFTs selected (reduces bandwidth)


 total amount of memory used by VASP MPI-rank0   164312. kBytes
=======================================================================

   base      :      30000. kBytes
   nonlr-proj:       2359. kBytes
   fftplans  :       2967. kBytes
   grid      :       6321. kBytes
   one-center:         93. kBytes
   wavefun   :     122572. kBytes
 
     INWAV:  cpu time    0.0000: real time    0.0000
 Broyden mixing: mesh for mixing (old mesh)
   NGX = 17   NGY = 17   NGZ = 93
  (NGX  = 56   NGY  = 56   NGZ  =288)
  gives a total of  26877 points

 initial charge density was supplied:
 charge density of overlapping atoms calculated
 number of electron     168.0000000 magnetization 
 keeping initial charge density in first step


--------------------------------------------------------------------------------------------------------


 Maximum index for non-local projection operator          539
 Maximum index for augmentation-charges          720 (set IRDMAX)


--------------------------------------------------------------------------------------------------------


 First call to EWALD:  gamma=   0.189
 Maximum number of real-space cells 5x 5x 1
 Maximum number of reciprocal cells 2x 2x 8

    FEWALD:  cpu time    0.0014: real time    0.0014


--------------------------------------- Iteration      1(   1)  ---------------------------------------


    POTLOK:  cpu time    0.0260: real time    0.0322
    SETDIJ:  cpu time    0.0035: real time    0.0035
     EDDAV:  cpu time   14.2809: real time   14.2822
       DOS:  cpu time    0.0078: real time    0.0078
    --------------------------------------------
      LOOP:  cpu time   14.3182: real time   14.3256

 eigenvalue-minimisations  : 19288
 total energy-change (2. order) : 0.1028557E+04  (-0.5831702E+04)
 number of electron     168.0000000 magnetization 
 augmentation part      168.0000000 magnetization 

 Free energy of the ion-electron system (eV)
  ---------------------------------------------------
  alpha Z        PSCENC =       324.87461712
  Ewald energy   TEWEN  =    101255.31970299
  -Hartree energ DENC   =   -113544.06405099
  -exchange      EXHF   =         0.00000000
  -V(xc)+E(xc)   XCENC  =        69.07760134
  PAW double counting   =     11288.27476651   -10829.50941267
  entropy T*S    EENTRO =        -0.00042628
  eigenvalues    EBANDS =       573.94669614
  atomic energy  EATOM  =     11890.63736546
  Solvation  Ediel_sol  =         0.00000000
  ---------------------------------------------------
  free energy    TOTEN  =      1028.55685961 eV

  energy without entropy =     1028.55728589  energy(sigma->0) =     1028.55700170


--------------------------------------------------------------------------------------------------------




--------------------------------------- Iteration      1(   2)  ---------------------------------------


     EDDAV:  cpu time   16.9735: real time   16.9747
       DOS:  cpu time    0.0080: real time    0.0080
    --------------------------------------------
      LOOP:  cpu time   16.9816: real time   16.9828

 eigenvalue-minimisations  : 24064
 total energy-change (2. order) :-0.1058706E+04  (-0.9840158E+03)
 number of electron     168.0000000 magnetization 
 augmentation part      168.0000000 magnetization 

 Free energy of the ion-electron system (eV)
  ---------------------------------------------------
  alpha Z        PSCENC =       324.87461712
  Ewald energy   TEWEN  =    101255.31970299
  -Hartree energ DENC   =   -113544.06405099
  -exchange      EXHF   =         0.00000000
  -V(xc)+E(xc)   XCENC  =        69.07760134
  PAW double counting   =     11288.27476651   -10829.50941267
  entropy T*S    EENTRO =        -0.00312328
  eigenvalues    EBANDS =      -484.75657210
  atomic energy  EATOM  =     11890.63736546
  Solvation  Ediel_sol  =         0.00000000
  ---------------------------------------------------
  free energy    TOTEN  =       -30.14910563 eV

  energy without entropy =      -30.14598235  energy(sigma->0) =      -30.14806454


--------------------------------------------------------------------------------------------------------




--------------------------------------- Iteration      1(   3)  ---------------------------------------


     EDDAV:  cpu time   16.2789: real time   16.2817
       DOS:  cpu time    0.0087: real time    0.0087
    --------------------------------------------
      LOOP:  cpu time   16.2876: real time   16.2904

 eigenvalue-minimisations  : 22880
 total energy-change (2. order) :-0.9113941E+02  (-0.8429963E+02)
 number of electron     168.0000000 magnetization 
 augmentation part      168.0000000 magnetization 

 Free energy of the ion-electron system (eV)
  ---------------------------------------------------
  alpha Z        PSCENC =       324.87461712
  Ewald energy   TEWEN  =    101255.31970299
  -Hartree energ DENC   =   -113544.06405099
  -exchange      EXHF   =         0.00000000
  -V(xc)+E(xc)   XCENC  =        69.07760134
  PAW double counting   =     11288.27476651   -10829.50941267
  entropy T*S    EENTRO =        -0.01247153
  eigenvalues    EBANDS =      -575.88663804
  atomic energy  EATOM  =     11890.63736546
  Solvation  Ediel_sol  =         0.00000000
  ---------------------------------------------------
  free energy    TOTEN  =      -121.28851982 eV

  energy without entropy =     -121.27604829  energy(sigma->0) =     -121.28436264


--------------------------------------------------------------------------------------------------------




--------------------------------------- Iteration      1(   4)  ---------------------------------------


     EDDAV:  cpu time   17.7096: real time   17.7106
       DOS:  cpu time    0.0089: real time    0.0089
    --------------------------------------------
      LOOP:  cpu time   17.7185: real time   17.7194

 eigenvalue-minimisations  : 25556
 total energy-change (2. order) :-0.4451180E+01  (-0.4247251E+01)
 number of electron     168.0000000 magnetization 
 augmentation part      168.0000000 magnetization 

 Free energy of the ion-electron system (eV)
  ---------------------------------------------------
  alpha Z        PSCENC =       324.87461712
  Ewald energy   TEWEN  =    101255.31970299
  -Hartree energ DENC   =   -113544.06405099
  -exchange      EXHF   =         0.00000000
  -V(xc)+E(xc)   XCENC  =        69.07760134
  PAW double counting   =     11288.27476651   -10829.50941267
  entropy T*S    EENTRO =        -0.01726869
  eigenvalues    EBANDS =      -580.33302070
  atomic energy  EATOM  =     11890.63736546
  Solvation  Ediel_sol  =         0.00000000
  ---------------------------------------------------
  free energy    TOTEN  =      -125.73969963 eV

  energy without entropy =     -125.72243095  energy(sigma->0) =     -125.73394340


--------------------------------------------------------------------------------------------------------




--------------------------------------- Iteration      1(   5)  ---------------------------------------


     EDDAV:  cpu time   18.4829: real time   18.4877
       DOS:  cpu time    0.0088: real time    0.0088
    CHARGE:  cpu time    0.7190: real time    0.7190
    MIXING:  cpu time    0.0010: real time    0.0010
    --------------------------------------------
      LOOP:  cpu time   19.2117: real time   19.2165

 eigenvalue-minimisations  : 26860
 total energy-change (2. order) :-0.1406093E+00  (-0.1395081E+00)
 number of electron     168.0000028 magnetization 
 augmentation part       46.8089520 magnetization 

 Broyden mixing:
  rms(total) = 0.43054E+01    rms(broyden)= 0.43051E+01
  rms(prec ) = 0.43555E+01
  weight for this iteration     100.00

 Free energy of the ion-electron system (eV)
  ---------------------------------------------------
  alpha Z        PSCENC =       324.87461712
  Ewald energy   TEWEN  =    101255.31970299
  -Hartree energ DENC   =   -113544.06405099
  -exchange      EXHF   =         0.00000000
  -V(xc)+E(xc)   XCENC  =        69.07760134
  PAW double counting   =     11288.27476651   -10829.50941267
  entropy T*S    EENTRO =        -0.01743767
  eigenvalues    EBANDS =      -580.47346097
  atomic energy  EATOM  =     11890.63736546
  Solvation  Ediel_sol  =         0.00000000
  ---------------------------------------------------
  free energy    TOTEN  =      -125.88030889 eV

  energy without entropy =     -125.86287122  energy(sigma->0) =     -125.87449633


--------------------------------------------------------------------------------------------------------




--------------------------------------- Iteration      1(   6)  ---------------------------------------


    POTLOK:  cpu time    0.0238: real time    0.0243
    SETDIJ:  cpu time    0.0034: real time    0.0034
     EDDAV:  cpu time   16.3832: real time   16.3837
       DOS:  cpu time    0.0101: real time    0.0101
    CHARGE:  cpu time    0.7373: real time    0.7373
    MIXING:  cpu time    0.0011: real time    0.0011
    --------------------------------------------
      LOOP:  cpu time   17.1589: real time   17.1599

 eigenvalue-minimisations  : 23044
 total energy-change (2. order) : 0.7686594E+01  (-0.3682110E+01)
 number of electron     168.0000019 magnetization 
 augmentation part       49.8592195 magnetization 

 Broyden mixing:
  rms(total) = 0.31954E+01    rms(broyden)= 0.31953E+01
  rms(prec ) = 0.32857E+01
  weight for this iteration     100.00

 eigenvalues of (default mixing * dielectric matrix)
  average eigenvalue GAMMA=   1.1653
  1.1653

 Free energy of the ion-electron system (eV)
  ---------------------------------------------------
  alpha Z        PSCENC =       324.87461712
  Ewald energy   TEWEN  =    101255.31970299
  -Hartree energ DENC   =   -113307.14736192
  -exchange      EXHF   =         0.00000000
  -V(xc)+E(xc)   XCENC  =        65.85239934
  PAW double counting   =     12532.20482171   -12097.69062495
  entropy T*S    EENTRO =        -0.01163769
  eigenvalues    EBANDS =      -782.23299735
  atomic energy  EATOM  =     11890.63736546
  Solvation  Ediel_sol  =         0.00000000
  ---------------------------------------------------
  free energy    TOTEN  =      -118.19371529 eV

  energy without entropy =     -118.18207760  energy(sigma->0) =     -118.18983606


--------------------------------------------------------------------------------------------------------




--------------------------------------- Iteration      1(   7)  ---------------------------------------


    POTLOK:  cpu time    0.0227: real time    0.0238
    SETDIJ:  cpu time    0.0033: real time    0.0033
     EDDAV:  cpu time   17.4066: real time   17.4070
       DOS:  cpu time    0.0096: real time    0.0096
    CHARGE:  cpu time    0.7192: real time    0.7192
    MIXING:  cpu time    0.0012: real time    0.0012
    --------------------------------------------
      LOOP:  cpu time   18.1627: real time   18.1641

 eigenvalue-minimisations  : 24936
 total energy-change (2. order) :-0.1873593E+02  (-0.7807347E+01)
 number of electron     168.0000031 magnetization 
 augmentation part       49.1588397 magnetization 

 Broyden mixing:
  rms(total) = 0.42419E+01    rms(broyden)= 0.42418E+01
  rms(prec ) = 0.46962E+01
  weight for this iteration     100.00

 eigenvalues of (default mixing * dielectric matrix)
  average eigenvalue GAMMA=   1.1050
  1.9340  0.2760

 Free energy of the ion-electron system (eV)
  ---------------------------------------------------
  alpha Z        PSCENC =       324.87461712
  Ewald energy   TEWEN  =    101255.31970299
  -Hartree energ DENC   =   -113496.09707338
  -exchange      EXHF   =         0.00000000
  -V(xc)+E(xc)   XCENC  =        65.40892019
  PAW double counting   =     13532.76133164   -13107.42293187
  entropy T*S    EENTRO =        -0.00718904
  eigenvalues    EBANDS =      -602.40438924
  atomic energy  EATOM  =     11890.63736546
  Solvation  Ediel_sol  =         0.00000000
  ---------------------------------------------------
  free energy    TOTEN  =      -136.92964614 eV

  energy without entropy =     -136.92245709  energy(sigma->0) =     -136.92724979


--------------------------------------------------------------------------------------------------------




--------------------------------------- Iteration      1(   8)  ---------------------------------------


    POTLOK:  cpu time    0.0230: real time    0.0235
    SETDIJ:  cpu time    0.0034: real time    0.0034
     EDDAV:  cpu time   18.4754: real time   18.4758
       DOS:  cpu time    0.0099: real time    0.0099
    CHARGE:  cpu time    0.7200: real time    0.7200
    MIXING:  cpu time    0.0011: real time    0.0011
    --------------------------------------------
      LOOP:  cpu time   19.2328: real time   19.2337

 eigenvalue-minimisations  : 26876
 total energy-change (2. order) : 0.1997422E+02  (-0.4376690E+01)
 number of electron     168.0000030 magnetization 
 augmentation part       50.6845222 magnetization 

 Broyden mixing:
  rms(total) = 0.11902E+01    rms(broyden)= 0.11899E+01
  rms(prec ) = 0.12709E+01
  weight for this iteration     100.00

 eigenvalues of (default mixing * dielectric matrix)
  average eigenvalue GAMMA=   1.0117
  2.0190  0.7425  0.2736

 Free energy of the ion-electron system (eV)
  ---------------------------------------------------
  alpha Z        PSCENC =       324.87461712
  Ewald energy   TEWEN  =    101255.31970299
  -Hartree energ DENC   =   -113343.53675386
  -exchange      EXHF   =         0.00000000
  -V(xc)+E(xc)   XCENC  =        64.90884638
  PAW double counting   =     14502.21832379   -14087.02932255
  entropy T*S    EENTRO =        -0.01240677
  eigenvalues    EBANDS =      -724.33579580
  atomic energy  EATOM  =     11890.63736546
  Solvation  Ediel_sol  =         0.00000000
[...]
     21      -5.2258      2.00000
     22      -5.0844      2.00000
     23      -5.0209      2.00000
     24      -4.8979      2.00000
     25      -4.8547      2.00000
     26      -4.7786      2.00000
     27      -4.6914      2.00000
     28      -4.6592      2.00000
     29      -4.6161      2.00000
     30      -4.5720      2.00000
     31      -4.5107      2.00000
     32      -4.3489      2.00000
     33      -4.2636      2.00000
     34      -4.1881      2.00000
     35      -4.1248      2.00000
     36      -4.0648      2.00000
     37      -4.0361      2.00000
     38      -3.9679      2.00000
     39      -3.8933      2.00000
     40      -3.8446      2.00000
     41      -3.7051      2.00000
     42      -3.6588      2.00000
     43      -3.6086      2.00000
     44      -3.5607      2.00000
     45      -3.5085      2.00000
     46      -3.4792      2.00000
     47      -3.4065      2.00000
     48      -3.3441      2.00000
     49      -3.2580      2.00000
     50      -3.2412      2.00000
     51      -3.2030      2.00000
     52      -3.1270      2.00000
     53      -3.0541      2.00000
     54      -2.9937      2.00000
     55      -2.8991      2.00000
     56      -2.8136      2.00000
     57      -2.7586      2.00000
     58      -2.6177      2.00000
     59      -2.5247      2.00000
     60      -2.3675      2.00000
     61      -2.3380      2.00000
     62      -2.3021      2.00000
     63      -2.2608      2.00000
     64      -2.1604      2.00000
     65      -2.0779      2.00000
     66      -1.9689      2.00000
     67      -1.9405      2.00000
     68      -1.8445      2.00000
     69      -1.7823      2.00000
     70      -1.7385      2.00000
     71      -1.6817      2.00000
     72      -1.5868      2.00000
     73      -1.5062      2.00000
     74      -1.4622      2.00000
     75      -1.3611      2.00000
     76      -1.3280      2.00000
     77      -1.2229      2.00000
     78      -1.0980      2.00000
     79      -1.0091      2.00002
     80      -0.9713      2.00006
     81      -0.8792      2.00076
     82      -0.6328      2.05513
     83      -0.5451      2.06110
     84      -0.5127      2.02332
     85      -0.3938      1.49396
     86      -0.3589      1.22203
     87      -0.2347      0.27282
     88      -0.1601     -0.00820
     89      -0.0850     -0.07087
     90       0.6078     -0.00000
     91       0.8820     -0.00000
     92       1.1345     -0.00000
     93       1.2085     -0.00000
     94       1.9459     -0.00000
     95       2.7425     -0.00000
     96       2.8351     -0.00000
     97       3.0948     -0.00000
     98       3.7236     -0.00000
     99       3.9909     -0.00000
    100       4.5068     -0.00000

 k-point    96 :      -0.4375    0.1250    0.0000
  band No.  band energies     occupation 
      1     -12.4503      2.00000
      2      -7.8763      2.00000
      3      -7.7399      2.00000
      4      -6.9416      2.00000
      5      -6.8274      2.00000
      6      -6.4224      2.00000
      7      -6.2600      2.00000
      8      -6.1128      2.00000
      9      -6.0960      2.00000
     10      -5.9176      2.00000
     11      -5.8544      2.00000
     12      -5.8131      2.00000
     13      -5.7695      2.00000
     14      -5.7263      2.00000
     15      -5.6887      2.00000
     16      -5.6008      2.00000
     17      -5.5458      2.00000
     18      -5.4827      2.00000
     19      -5.3511      2.00000
     20      -5.2619      2.00000
     21      -5.2382      2.00000
     22      -5.1356      2.00000
     23      -5.0248      2.00000
     24      -4.8796      2.00000
     25      -4.8207      2.00000
     26      -4.7579      2.00000
     27      -4.7090      2.00000
     28      -4.6672      2.00000
     29      -4.6145      2.00000
     30      -4.5648      2.00000
     31      -4.5316      2.00000
     32      -4.4926      2.00000
     33      -4.2651      2.00000
     34      -4.1710      2.00000
     35      -4.1614      2.00000
     36      -4.0833      2.00000
     37      -4.0119      2.00000
     38      -3.9994      2.00000
     39      -3.9799      2.00000
     40      -3.8738      2.00000
     41      -3.8344      2.00000
     42      -3.6980      2.00000
     43      -3.6421      2.00000
     44      -3.6204      2.00000
     45      -3.5607      2.00000
     46      -3.4859      2.00000
     47      -3.3976      2.00000
     48      -3.3003      2.00000
     49      -3.2671      2.00000
     50      -3.1976      2.00000
     51      -3.1720      2.00000
     52      -3.1143      2.00000
     53      -3.0263      2.00000
     54      -2.9844      2.00000
     55      -2.9195      2.00000
     56      -2.7827      2.00000
     57      -2.7222      2.00000
     58      -2.5736      2.00000
     59      -2.5457      2.00000
     60      -2.4328      2.00000
     61      -2.3830      2.00000
     62      -2.3284      2.00000
     63      -2.2523      2.00000
     64      -2.1444      2.00000
     65      -2.0749      2.00000
     66      -1.9696      2.00000
     67      -1.8750      2.00000
     68      -1.8412      2.00000
     69      -1.7378      2.00000
     70      -1.7020      2.00000
     71      -1.6589      2.00000
     72      -1.5912      2.00000
     73      -1.5334      2.00000
     74      -1.4758      2.00000
     75      -1.4088      2.00000
     76      -1.2633      2.00000
     77      -1.1274      2.00000
     78      -1.0835      2.00000
     79      -1.0361      2.00001
     80      -0.9042      2.00040
     81      -0.7561      2.01070
     82      -0.7361      2.01505
     83      -0.5941      2.06898
     84      -0.4599      1.87239
     85      -0.3694      1.30727
     86      -0.3176      0.87517
     87      -0.2373      0.28731
     88      -0.0489     -0.06223
     89       0.0464     -0.02220
     90       0.5956     -0.00000
     91       0.8491     -0.00000
     92       1.1947     -0.00000
     93       1.2518     -0.00000
     94       1.8152     -0.00000
     95       2.4023     -0.00000
     96       2.7742     -0.00000
     97       3.3821     -0.00000
     98       3.6876     -0.00000
     99       4.1024     -0.00000
    100       4.3710     -0.00000


--------------------------------------------------------------------------------------------------------


 soft charge-density along one line, spin component           1
         0         1         2         3         4         5         6         7         8         9
 total charge-density along one line
 
 pseudopotential strength for first ion, spin component:           1
 -7.961   0.003  -0.003  -0.012   0.001  -8.109   0.003  -0.003
  0.003  -7.938  -0.000   0.004  -0.007   0.003  -8.086  -0.000
 -0.003  -0.000  -7.951  -0.002   0.001  -0.003  -0.000  -8.099
 -0.012   0.004  -0.002  -7.945   0.004  -0.012   0.004  -0.002
  0.001  -0.007   0.001   0.004  -7.959   0.001  -0.006   0.001
 -8.109   0.003  -0.003  -0.012   0.001  -8.241   0.003  -0.003
  0.003  -8.086  -0.000   0.004  -0.006   0.003  -8.219  -0.000
 -0.003  -0.000  -8.099  -0.002   0.001  -0.003  -0.000  -8.232
 -0.012   0.004  -0.002  -8.094   0.004  -0.012   0.004  -0.001
  0.001  -0.006   0.001   0.004  -8.107   0.001  -0.006   0.001
 -0.001   0.001  -0.003   0.000   0.001  -0.001   0.001  -0.003
 -0.002   0.001  -0.005   0.000   0.001  -0.002   0.001  -0.004
  0.001   0.001   0.000  -0.000   0.000   0.001   0.001   0.000
 -0.000  -0.000   0.001   0.000   0.000  -0.000  -0.000   0.001
 -0.000  -0.000  -0.001   0.001   0.001  -0.000  -0.000  -0.001
  0.001   0.001   0.000  -0.000   0.000   0.001   0.001   0.000
 -0.000  -0.000   0.001   0.000   0.000  -0.000  -0.000   0.001
 -0.000  -0.000  -0.000   0.001   0.001  -0.000  -0.000  -0.000
 total augmentation occupancy for first ion, spin component:           1
  6.006   0.181  -0.004  -0.044   0.096  -4.022  -0.153  -0.003  -0.116  -0.074  -0.010   0.004   0.002  -0.015   0.009   0.001
  0.181   6.203  -0.008   0.193   0.175  -0.153  -4.002   0.015  -0.164  -0.295   0.022  -0.006   0.000   0.021  -0.009   0.000
 -0.004  -0.008   6.365  -0.028  -0.045  -0.003   0.015  -4.385  -0.010   0.036   0.089  -0.012   0.017   0.036  -0.029   0.000
 -0.044   0.193  -0.028   5.904   0.197  -0.116  -0.164  -0.010  -3.777  -0.165  -0.071   0.007  -0.009  -0.036   0.013   0.000
  0.096   0.175  -0.045   0.197   6.164  -0.074  -0.296   0.036  -0.165  -4.147  -0.009   0.001   0.012   0.007   0.001   0.001
 -4.022  -0.153  -0.003  -0.116  -0.074   3.940   0.130   0.008   0.239   0.057   0.015  -0.010  -0.004   0.012  -0.008  -0.000
 -0.153  -4.002   0.015  -0.164  -0.296   0.130   3.748  -0.019   0.141   0.387  -0.024   0.012  -0.003  -0.017   0.006   0.000
 -0.003   0.015  -4.385  -0.010   0.036   0.008  -0.019   4.306   0.037  -0.028  -0.086   0.010  -0.015  -0.035   0.025   0.000
 -0.116  -0.164  -0.010  -3.777  -0.165   0.239   0.141   0.037   3.583   0.140   0.072  -0.017   0.007   0.028  -0.012  -0.000
 -0.074  -0.295   0.036  -0.165  -4.147   0.057   0.387  -0.028   0.140   4.042   0.007   0.002  -0.013  -0.006  -0.003   0.000
 -0.010   0.022   0.089  -0.071  -0.009   0.015  -0.024  -0.086   0.072   0.007   3.015  -0.815   0.002  -0.010  -0.004  -0.000
  0.004  -0.006  -0.012   0.007   0.001  -0.010   0.012   0.010  -0.017   0.002  -0.815   0.247   0.001   0.001  -0.002   0.000
  0.002   0.000   0.017  -0.009   0.012  -0.004  -0.003  -0.015   0.007  -0.013   0.002   0.001   0.250  -0.000  -0.001  -0.008
 -0.015   0.021   0.036  -0.036   0.007   0.012  -0.017  -0.035   0.028  -0.006  -0.010   0.001  -0.000   0.241   0.003   0.000
  0.009  -0.009  -0.029   0.013   0.001  -0.008   0.006   0.025  -0.012  -0.003  -0.004  -0.002  -0.001   0.003   0.253  -0.000
  0.001   0.000   0.000   0.000   0.001  -0.000   0.000   0.000  -0.000   0.000  -0.000   0.000  -0.008   0.000  -0.000   0.000
  0.000  -0.001  -0.000   0.001  -0.000  -0.000   0.000   0.001  -0.000   0.000   0.001  -0.000   0.000  -0.008  -0.000  -0.000
 -0.001   0.000  -0.001   0.000   0.001   0.000  -0.000  -0.000   0.000  -0.000   0.000  -0.000  -0.000  -0.000  -0.008   0.000


------------------------ aborting loop because EDIFF is reached ----------------------------------------



 DIPCOR: dipole corrections for dipol
 direction  3 min pos    22,
 dipolmoment           0.000000      0.000000     -0.229248 electrons x Angstroem
 Tr[quadrupol]      -936.777016

 energy correction for charged system         0.000000 eV
 dipol+quadrupol energy correction            0.005770 eV
 added-field ion interaction          0.000000 eV  (added to PSCEN)

 
  *************** adding dipol energy to TOTEN NOW **************** 
    CHARGE:  cpu time    0.7191: real time    0.7191
    FORLOC:  cpu time    0.0070: real time    0.0070
    FORNL :  cpu time    3.2299: real time    3.2300
    STRESS:  cpu time    9.7185: real time    9.7186
    FORCOR:  cpu time    0.0284: real time    0.0284
    FORHAR:  cpu time    0.0119: real time    0.0119
    MIXING:  cpu time    0.0039: real time    0.0039
    OFIELD:  cpu time    0.0000: real time    0.0000

  FORCE on cell =-STRESS in cart. coord.  units (eV):
  Direction    XX          YY          ZZ          XY          YZ          ZX
  --------------------------------------------------------------------------------------
  Alpha Z   324.87462   324.87462   324.87462
  Ewald  110118.44934110127.81585************    20.09261     5.49924    -3.54692
  Hartree112619.27830112633.14744************    15.87485     1.02551    -0.39431
  E(xc)    -737.07523  -737.12743  -741.16388     0.01912     0.04362    -0.06124
  Local  ************************227882.37983   -36.65439    -4.81679     2.15115
  n-local    46.52666    46.10063    38.41520     0.08886     0.25760    -0.05885
  augment   835.84900   836.80263   856.66720     0.18721    -0.70378     0.78470
  Kinetic  2385.05601  2387.40814  2440.94628     0.74062    -1.19955     1.65679
  Fock        0.00000     0.00000     0.00000     0.00000     0.00000     0.00000
  -------------------------------------------------------------------------------------
  Total     -11.74983   -11.64201    -1.28798     0.34887     0.10584     0.53133
  in kB     -22.84271   -22.63309    -2.50395     0.67824     0.20576     1.03295
  external pressure =      -15.99 kB  Pullay stress =        0.00 kB


 VOLUME and BASIS-vectors are now :
 -----------------------------------------------------------------------------
  energy-cutoff  :      350.00
  volume of cell :      824.13
      direct lattice vectors                 reciprocal lattice vectors
     5.557859300  0.000000000  0.000000000     0.179925390 -0.103879972  0.000000000
     2.778929650  4.813247345  0.000000000     0.000000000  0.207759944  0.000000000
     0.000000000  0.000000000 30.806959674     0.000000000  0.000000000  0.032460198

  length of vectors
     5.557859300  5.557859300 30.806959674     0.207759944  0.207759944  0.032460198


 FORCES acting on ions
    electron-ion (+dipol)            ewald-force                    non-local-force                 convergence-correction
 -----------------------------------------------------------------------------------------------
   0.115E+00 0.361E+00 -.789E+03   -.386E+00 -.202E+00 0.789E+03   0.270E+00 -.164E+00 0.201E+00   -.123E-02 0.631E-03 -.104E-01
   0.409E+00 -.281E+00 -.134E+04   -.472E+00 0.303E+00 0.134E+04   0.584E-01 -.180E-02 -.137E+01   0.303E-04 -.163E-04 -.576E-03
   -.234E+01 0.215E+01 -.365E+03   0.252E+01 -.232E+01 0.368E+03   -.127E+00 0.170E+00 -.307E+01   -.242E-04 0.143E-04 -.238E-03
   -.473E+01 -.439E+02 -.346E+03   0.543E+01 0.491E+02 0.348E+03   -.701E+00 -.515E+01 -.183E+01   0.312E-04 -.996E-04 -.112E-03
   0.431E+02 0.151E+02 -.344E+03   -.481E+02 -.171E+02 0.346E+03   0.493E+01 0.191E+01 -.156E+01   0.133E-03 -.547E-05 -.949E-04
   -.360E+02 0.289E+02 -.345E+03   0.400E+02 -.322E+02 0.346E+03   -.402E+01 0.328E+01 -.177E+01   -.126E-03 0.921E-04 -.760E-04
   -.248E+01 0.199E+01 0.266E+04   0.242E+01 -.193E+01 -.266E+04   0.340E-01 -.314E-01 -.135E+00   -.851E-04 -.830E-04 0.353E-02
   -.199E+01 -.430E+01 -.257E+04   0.247E+01 0.436E+01 0.257E+04   -.391E+00 -.198E-01 0.148E+01   0.350E-03 0.172E-03 -.775E-02
   0.447E+01 -.210E+01 -.258E+04   -.438E+01 0.187E+01 0.258E+04   -.123E+00 0.279E+00 -.604E+01   -.285E-03 0.177E-03 -.694E-02
   0.465E+01 0.295E+01 -.257E+04   -.446E+01 -.344E+01 0.257E+04   -.175E+00 0.385E+00 0.150E+01   0.308E-04 -.394E-03 -.781E-02
   -.696E+01 -.414E+00 -.261E+04   0.664E+01 0.453E+00 0.261E+04   0.328E+00 -.562E-01 -.529E+01   0.294E-04 -.359E-04 -.641E-02
   0.227E+01 -.134E+01 0.295E+04   -.218E+01 0.130E+01 -.295E+04   -.698E-01 0.869E-01 -.614E+00   0.549E-04 -.148E-04 0.376E-02
   0.104E+00 0.357E+01 -.739E+03   0.265E+00 -.377E+01 0.738E+03   -.391E+00 0.215E+00 0.959E-01   0.111E-02 -.461E-03 -.888E-02
   0.584E+00 -.561E+01 0.115E+04   -.581E+00 0.581E+01 -.115E+04   -.910E-02 -.504E-01 0.374E-01   0.695E-04 -.946E-03 0.448E-02
   -.748E+00 -.628E+01 0.113E+04   0.691E+00 0.656E+01 -.113E+04   0.494E-01 -.835E-01 -.705E+00   -.728E-04 0.283E-03 0.337E-02
   -.536E+00 0.583E+01 0.117E+04   0.489E+00 -.603E+01 -.117E+04   0.497E-02 0.673E-01 -.545E-01   0.105E-02 0.321E-03 0.417E-02
   0.623E+00 0.639E+01 0.114E+04   -.740E+00 -.657E+01 -.114E+04   0.899E-01 -.102E-01 -.643E+00   -.104E-02 0.362E-03 0.413E-02
   -.327E+01 0.165E+01 0.295E+04   0.309E+01 -.152E+01 -.295E+04   0.192E+00 -.168E+00 -.742E+00   0.726E-04 0.103E-03 0.376E-02
   0.297E+01 -.117E+01 0.295E+04   -.281E+01 0.113E+01 -.295E+04   -.156E+00 -.374E-01 -.633E+00   -.994E-04 0.483E-04 0.388E-02
   0.265E+01 -.197E+01 -.745E+03   -.311E+01 0.221E+01 0.745E+03   0.470E+00 -.247E+00 0.234E-01   -.927E-03 0.596E-03 -.979E-02
   -.282E+01 -.232E+01 -.741E+03   0.319E+01 0.201E+01 0.741E+03   -.394E+00 0.311E+00 -.116E+00   0.898E-03 -.687E-03 -.878E-02
 -----------------------------------------------------------------------------------------------
   0.129E+00 -.699E+00 0.213E+02   -.786E-13 0.355E-14 0.205E-11   -.135E+00 0.689E+00 -.212E+02   -.294E-04 0.578E-04 -.367E-01
 
 
 POSITION                                       TOTAL-FORCE (eV/Angst)
 -----------------------------------------------------------------------------------
      2.79155      1.55471     16.72766        -0.001637     -0.004135      0.120426
      2.73838      4.71443     21.36095        -0.004349      0.020528      0.002081
      1.48683      2.23696     20.67118         0.045117     -0.004897     -0.025070
      5.65972      0.92613     21.72916         0.000642     -0.001331      0.005727
      7.31573      4.33143     21.67648         0.002057      0.004661      0.002621
      3.54411      4.05673     21.71956         0.006195      0.004024     -0.006005
      2.76621      0.00627     12.08909        -0.029886      0.034215      1.203286
      4.21079      2.32214     19.01183         0.083314      0.038893      0.305953
      1.42741      2.32075     19.12121        -0.030007      0.049404      0.103683
      5.59784      4.72775     19.01265         0.013261     -0.102853      0.266451
      2.80697      4.73050     19.28880         0.004831     -0.016657     -0.080678
      2.78078      4.81228     12.09568         0.012772      0.052709     -0.278981
      5.57654      1.54560     16.74898        -0.021207      0.018569     -0.177607
      5.55799      3.19031     14.41142        -0.004920      0.150780     -0.285548
      2.77803      3.19083     14.45164        -0.007180      0.190520     -0.152575
      4.16959      0.78306     14.40271        -0.041300     -0.136655     -0.445414
      1.38806      0.78263     14.44984        -0.027382     -0.185249     -0.495563
      4.15584      2.41410     12.08889         0.013027     -0.040151     -0.086507
      1.39058      2.40625     12.09458         0.004677     -0.073034     -0.056358
      4.16704      3.96935     16.76089         0.008126     -0.004973      0.073830
      6.97079      3.96026     16.75286        -0.026151      0.005631      0.006246
 -----------------------------------------------------------------------------------
    total drift:                               -0.006179     -0.010460      0.006942


--------------------------------------------------------------------------------------------------------



  FREE ENERGIE OF THE ION-ELECTRON SYSTEM (eV)
  ---------------------------------------------------
  free  energy   TOTEN  =      -115.51497233 eV

  energy  without entropy=     -115.49330974  energy(sigma->0) =     -115.50775147
 


--------------------------------------------------------------------------------------------------------


    POTLOK:  cpu time    0.0262: real time    0.0262


--------------------------------------------------------------------------------------------------------


     LOOP+:  cpu time  576.1243: real time  576.2105
    4ORBIT:  cpu time    0.0000: real time    0.0000

 total amount of memory used by VASP MPI-rank0   164312. kBytes
=======================================================================

   base      :      30000. kBytes
   nonlr-proj:       2359. kBytes
   fftplans  :       2967. kBytes
   grid      :       6321. kBytes
   one-center:         93. kBytes
   wavefun   :     122572. kBytes
 
  
  
 General timing and accounting informations for this job:
 ========================================================
  
                  Total CPU time used (sec):      583.880
                            User time (sec):      579.542
                          System time (sec):        4.338
                         Elapsed time (sec):      584.139
  
                   Maximum memory used (kb):      207072.
                   Average memory used (kb):           0.
  
                          Minor page faults:        82962
                          Major page faults:            0
                 Voluntary context switches:         1275
