 vasp.5.4.4.18Apr17-6-g9f103f2a35 (build Apr 28 2017 10:53:45) complex          
  
 executed on             LinuxIFC date 2019.07.18  17:49:18
 running on   16 total cores
 distrk:  each k-point on   16 cores,    1 groups
 distr:  one band on NCORES_PER_BAND=   4 cores,    4 groups


--------------------------------------------------------------------------------------------------------


 INCAR:
 POTCAR:    PAW_PBE Au 04Oct2007                  
 POTCAR:    PAW_PBE Ir 06Sep2000                  
 POTCAR:    PAW_PBE Pt 04Feb2005                  
 POTCAR:    PAW_PBE Au 04Oct2007                  
   VRHFIN =Au: s1d10                                                            
   LEXCH  = PE                                                                  
   EATOM  =   926.0867 eV,   68.0654 Ry                                         
                                                                                
   TITEL  = PAW_PBE Au 04Oct2007                                                
   LULTRA =        F    use ultrasoft PP ?                                      
   IUNSCR =        1    unscreen: 0-lin 1-nonlin 2-no                           
   RPACOR =    2.330    partial core radius                                     
   POMASS =  196.966; ZVAL   =   11.000    mass and valenz                      
   RCORE  =    2.500    outmost cutoff radius                                   
   RWIGS  =    2.840; RWIGS  =    1.503    wigner-seitz radius (au A)           
   ENMAX  =  229.943; ENMIN  =  172.457 eV                                      
   ICORE  =        3    local potential                                         
   LCOR   =        T    correct aug charges                                     
   LPAW   =        T    paw PP                                                  
   EAUG   =  356.670                                                            
   DEXC   =    0.000                                                            
   RMAX   =    2.562    core radius for proj-oper                               
   RAUG   =    1.300    factor for augmentation sphere                          
   RDEP   =    2.598    radius for radial grids                                 
   RDEPT  =    2.193    core radius for aug-charge                              
                                                                                
   Atomic configuration                                                         
   16 entries                                                                   
     n  l   j            E        occ.                                          
     1  0  0.50    -80748.5001   2.0000                                         
     2  0  0.50    -14244.7466   2.0000                                         
     2  1  1.50    -12310.9591   6.0000                                         
     3  0  0.50     -3362.1768   2.0000                                         
     3  1  1.50     -2801.5463   6.0000                                         
     3  2  2.50     -2203.8206  10.0000                                         
     4  0  0.50      -729.8168   2.0000                                         
     4  1  1.50      -546.0527   6.0000                                         
     4  2  2.50      -325.7302  10.0000                                         
     4  3  3.50       -81.1472  14.0000                                         
     5  0  0.50      -108.3201   2.0000                                         
     5  1  1.50       -59.7479   6.0000                                         
     5  2  2.50        -6.8783  10.0000                                         
     6  0  0.50        -5.7602   1.0000                                         
     6  1  1.50        -6.8029   0.0000                                         
     5  3  2.50        -1.3606   0.0000                                         
   Description                                                                  
     l       E           TYP  RCUT    TYP  RCUT                                 
     2     -6.8782861     23  2.500                                             
     2     -8.2388687     23  2.500                                             
     0     -5.7601759     23  2.500                                             
     0     -0.8493231     23  2.500                                             
     1     -2.7211652     23  2.500                                             
     1     27.2116520     23  2.500                                             
     3     -1.3605826     23  2.500                                             
  local pseudopotential read in
  partial core-charges read in
  partial kinetic energy density read in
  atomic valenz-charges read in
  non local Contribution for L=           2  read in
    real space projection operators read in
  non local Contribution for L=           2  read in
    real space projection operators read in
  non local Contribution for L=           0  read in
    real space projection operators read in
  non local Contribution for L=           0  read in
    real space projection operators read in
  non local Contribution for L=           1  read in
    real space projection operators read in
  non local Contribution for L=           1  read in
    real space projection operators read in
    PAW grid and wavefunctions read in
 
   number of l-projection  operators is LMAX  =           6
   number of lm-projection operators is LMMAX =          18
 
 POTCAR:    PAW_PBE Ir 06Sep2000                  
   VRHFIN =Ir: s1d8                                                             
   LEXCH  = PE                                                                  
   EATOM  =   560.1833 eV,   41.1723 Ry                                         
                                                                                
   TITEL  = PAW_PBE Ir 06Sep2000                                                
   LULTRA =        F    use ultrasoft PP ?                                      
   IUNSCR =        1    unscreen: 0-lin 1-nonlin 2-no                           
   RPACOR =    2.250    partial core radius                                     
   POMASS =  192.220; ZVAL   =    9.000    mass and valenz                      
   RCORE  =    2.600    outmost cutoff radius                                   
   RWIGS  =    2.690; RWIGS  =    1.423    wigner-seitz radius (au A)           
   ENMAX  =  210.864; ENMIN  =  158.148 eV                                      
   RCLOC  =    1.857    cutoff for local pot                                    
   LCOR   =        T    correct aug charges                                     
   LPAW   =        T    paw PP                                                  
   EAUG   =  318.962                                                            
   DEXC   =    0.000                                                            
   RMAX   =    2.667    core radius for proj-oper                               
   RAUG   =    1.300    factor for augmentation sphere                          
   RDEP   =    2.748    radius for radial grids                                 
   RDEPT  =    2.300    core radius for aug-charge                              
                                                                                
   Atomic configuration                                                         
   16 entries                                                                   
     n  l   j            E        occ.                                          
     1  0  0.50    -76100.0449   2.0000                                         
     2  0  0.50    -13308.1683   2.0000                                         
     2  1  1.50    -11558.0021   6.0000                                         
     3  0  0.50     -3110.7274   2.0000                                         
     3  1  1.50     -2599.2109   6.0000                                         
     3  2  2.50     -2037.1515  10.0000                                         
     4  0  0.50      -661.6001   2.0000                                         
     4  1  1.50      -493.8981   6.0000                                         
     4  2  2.50      -288.1909  10.0000                                         
     4  3  3.50       -59.5718  14.0000                                         
     5  0  0.50       -95.3879   2.0000                                         
     5  1  1.50       -52.2747   6.0000                                         
     5  2  2.50        -5.4180   8.0000                                         
     6  0  0.50        -5.5479   1.0000                                         
     6  1  1.50        -6.8029   0.0000                                         
     5  3  2.50        -1.3606   0.0000                                         
   Description                                                                  
     l       E           TYP  RCUT    TYP  RCUT                                 
     2     -5.4179967     23  2.600                                             
     2     -6.7785793     23  2.600                                             
     0     -5.5478636     23  2.600                                             
     0      2.2542272     23  2.600                                             
     1     -2.7211652     23  2.600                                             
     1     20.4087390     23  2.600                                             
  local pseudopotential read in
  partial core-charges read in
  partial kinetic energy density read in
  atomic valenz-charges read in
  non local Contribution for L=           2  read in
    real space projection operators read in
  non local Contribution for L=           2  read in
    real space projection operators read in
  non local Contribution for L=           0  read in
    real space projection operators read in
  non local Contribution for L=           0  read in
    real space projection operators read in
  non local Contribution for L=           1  read in
    real space projection operators read in
  non local Contribution for L=           1  read in
    real space projection operators read in
    PAW grid and wavefunctions read in
 
   number of l-projection  operators is LMAX  =           6
   number of lm-projection operators is LMMAX =          18
 
 POTCAR:    PAW_PBE Pt 04Feb2005                  
   VRHFIN =Pt: s1d9                                                             
   LEXCH  = PE                                                                  
   EATOM  =   729.1176 eV,   53.5886 Ry                                         
                                                                                
   TITEL  = PAW_PBE Pt 04Feb2005                                                
   LULTRA =        F    use ultrasoft PP ?                                      
   IUNSCR =        1    unscreen: 0-lin 1-nonlin 2-no                           
   RPACOR =    2.330    partial core radius                                     
   POMASS =  195.080; ZVAL   =   10.000    mass and valenz                      
   RCORE  =    2.600    outmost cutoff radius                                   
   RWIGS  =    2.750; RWIGS  =    1.455    wigner-seitz radius (au A)           
   ENMAX  =  230.283; ENMIN  =  172.712 eV                                      
   ICORE  =        3    local potential                                         
   LCOR   =        T    correct aug charges                                     
   LPAW   =        T    paw PP                                                  
   EAUG   =  358.966                                                            
   DEXC   =    0.000                                                            
   RMAX   =    2.658    core radius for proj-oper                               
   RAUG   =    1.300    factor for augmentation sphere                          
   RDEP   =    2.761    radius for radial grids                                 
   RDEPT  =    2.203    core radius for aug-charge                              
                                                                                
   Atomic configuration                                                         
   16 entries                                                                   
     n  l   j            E        occ.                                          
     1  0  0.50    -78401.1885   2.0000                                         
     2  0  0.50    -13770.7750   2.0000                                         
     2  1  1.50    -11931.0468   6.0000                                         
     3  0  0.50     -3234.7234   2.0000                                         
     3  1  1.50     -2699.2216   6.0000                                         
     3  2  2.50     -2119.5714  10.0000                                         
     4  0  0.50      -695.1528   2.0000                                         
     4  1  1.50      -519.6034   6.0000                                         
     4  2  2.50      -306.6786  10.0000                                         
     4  3  3.50       -70.1041  14.0000                                         
     5  0  0.50      -101.7747   2.0000                                         
     5  1  1.50       -55.9873   6.0000                                         
     5  2  2.50        -6.1423   9.0000                                         
     6  0  0.50        -5.6573   1.0000                                         
     6  1  1.50        -6.8029   0.0000                                         
     5  3  2.50        -1.3606   0.0000                                         
   Description                                                                  
     l       E           TYP  RCUT    TYP  RCUT                                 
     2     -6.1423404     23  2.500                                             
     2     -7.5029230     23  2.500                                             
     0     -5.6573207     23  2.500                                             
     0      0.7416693     23  2.500                                             
     1     -2.7211652     23  2.600                                             
     1     20.4087390     23  2.600                                             
     3     -1.3605826     23  2.500                                             
  local pseudopotential read in
  partial core-charges read in
  partial kinetic energy density read in
  atomic valenz-charges read in
  non local Contribution for L=           2  read in
    real space projection operators read in
  non local Contribution for L=           2  read in
    real space projection operators read in
  non local Contribution for L=           0  read in
    real space projection operators read in
  non local Contribution for L=           0  read in
    real space projection operators read in
  non local Contribution for L=           1  read in
    real space projection operators read in
  non local Contribution for L=           1  read in
    real space projection operators read in
    PAW grid and wavefunctions read in
 
   number of l-projection  operators is LMAX  =           6
   number of lm-projection operators is LMMAX =          18
 
 Optimization of the real space projectors (new method)

 maximal supplied QI-value         = 15.12
 optimisation between [QCUT,QGAM] = [  9.52, 19.05] = [ 25.40,101.61] Ry 
 Optimized for a Real-space Cutoff    1.57 Angstroem

   l    n(q)    QCUT    max X(q) W(low)/X(q) W(high)/X(q)  e(spline) 
   2      8     9.524    60.898    0.38E-03    0.43E-04    0.84E-07
   2      8     9.524    58.894    0.38E-03    0.47E-04    0.88E-07
   0      9     9.524   109.617    0.60E-04    0.64E-04    0.80E-07
   0      9     9.524    75.026    0.59E-04    0.62E-04    0.78E-07
   1      8     9.524    16.344    0.99E-04    0.18E-03    0.87E-07
   1      8     9.524    10.160    0.78E-04    0.15E-03    0.74E-07
 Optimization of the real space projectors (new method)

 maximal supplied QI-value         = 14.36
 optimisation between [QCUT,QGAM] = [  9.48, 19.10] = [ 25.16,102.17] Ry 
 Optimized for a Real-space Cutoff    1.57 Angstroem

   l    n(q)    QCUT    max X(q) W(low)/X(q) W(high)/X(q)  e(spline) 
   2      8     9.479   134.116    0.18E-03    0.75E-03    0.26E-06
   2      8     9.479   130.192    0.18E-03    0.75E-03    0.27E-06
   0      9     9.479    60.310    0.39E-03    0.24E-03    0.63E-07
   0      9     9.479    39.218    0.36E-03    0.22E-03    0.59E-07
   1      8     9.479    18.439    0.20E-03    0.15E-03    0.16E-06
   1      8     9.479    12.760    0.16E-03    0.11E-03    0.13E-06
 Optimization of the real space projectors (new method)

 maximal supplied QI-value         = 14.36
 optimisation between [QCUT,QGAM] = [  9.48, 19.10] = [ 25.16,102.17] Ry 
 Optimized for a Real-space Cutoff    1.57 Angstroem

   l    n(q)    QCUT    max X(q) W(low)/X(q) W(high)/X(q)  e(spline) 
   2      8     9.479    66.195    0.35E-03    0.53E-04    0.87E-07
   2      8     9.479    64.643    0.35E-03    0.57E-04    0.91E-07
   0      9     9.479    95.520    0.50E-04    0.62E-04    0.81E-07
   0      9     9.479    63.403    0.49E-04    0.60E-04    0.78E-07
   1      8     9.479    19.961    0.10E-03    0.87E-04    0.11E-06
   1      8     9.479    13.289    0.88E-04    0.71E-04    0.97E-07
  PAW_PBE Au 04Oct2007                  :
 energy of atom  1       EATOM= -926.0867
 kinetic energy error for atom=    0.0152 (will be added to EATOM!!)
  PAW_PBE Ir 06Sep2000                  :
 energy of atom  2       EATOM= -560.1833
 kinetic energy error for atom=    0.0056 (will be added to EATOM!!)
  PAW_PBE Pt 04Feb2005                  :
 energy of atom  3       EATOM= -729.1176
 kinetic energy error for atom=    0.0144 (will be added to EATOM!!)
 
 
 POSCAR: Au Ir Pt                                
  positions in cartesian coordinates
  No initial velocities read in
 exchange correlation table for  LEXCH =        8
   RHO(1)=    0.500       N(1)  =     2000
   RHO(2)=  100.500       N(2)  =     4000
 


--------------------------------------------------------------------------------------------------------


 ion  position               nearest neighbor table
   1  0.500  0.000  0.631-  16 2.77  15 2.77  16 2.77  15 2.77  14 2.77  14 2.77  13 2.83  12 2.83
                            11 2.83
   2  0.500  0.000  0.373-   5 2.77   4 2.77   5 2.77   4 2.77   3 2.77   3 2.77   7 2.77   6 2.77
                             9 2.77
   3  0.000  0.000  0.373-   4 2.77   4 2.77   5 2.77   5 2.77   2 2.77   2 2.77   6 2.77   7 2.77
                             8 2.77
   4  0.000  0.500  0.373-   3 2.77   2 2.77   3 2.77   2 2.77   5 2.77   5 2.77   8 2.77   6 2.77
                             9 2.77
   5  0.500  0.500  0.373-   2 2.77   2 2.77   3 2.77   3 2.77   4 2.77   4 2.77   9 2.77   8 2.77
                             7 2.77
   6  0.167  0.167  0.458-   8 2.77   8 2.77   9 2.77   9 2.77   7 2.77   7 2.77   3 2.77   2 2.77
                             4 2.77  10 2.81  13 2.81  11 2.81
   7  0.667  0.167  0.458-   9 2.77   8 2.77   9 2.77   8 2.77   6 2.77   6 2.77   2 2.77   3 2.77
                             5 2.77  11 2.81  12 2.81  10 2.81
   8  0.167  0.667  0.458-   6 2.77   6 2.77   7 2.77   7 2.77   9 2.77   9 2.77   4 2.77   3 2.77
                             5 2.77  11 2.81  12 2.81  13 2.81
   9  0.667  0.667  0.458-   7 2.77   6 2.77   7 2.77   6 2.77   8 2.77   8 2.77   5 2.77   4 2.77
                             2 2.77  10 2.81  13 2.81  12 2.81
  10  0.833  0.333  0.544-  12 2.77  12 2.77  13 2.77  13 2.77  11 2.77  11 2.77   6 2.81   9 2.81
                             7 2.81  15 2.83  14 2.83  16 2.83
  11  0.333  0.333  0.544-  13 2.77  12 2.77  13 2.77  12 2.77  10 2.77  10 2.77   7 2.81   8 2.81
                             6 2.81  16 2.83  15 2.83   1 2.83
  12  0.833  0.833  0.544-  10 2.77  10 2.77  11 2.77  11 2.77  13 2.77  13 2.77   7 2.81   8 2.81
                             9 2.81  14 2.83   1 2.83  15 2.83
  13  0.333  0.833  0.544-  11 2.77  10 2.77  11 2.77  10 2.77  12 2.77  12 2.77   6 2.81   9 2.81
                             8 2.81   1 2.83  14 2.83  16 2.83
  14  0.000  0.000  0.631-  15 2.77  15 2.77  16 2.77  16 2.77   1 2.77   1 2.77  12 2.83  13 2.83
                            10 2.83
  15  0.000  0.500  0.631-  14 2.77   1 2.77  14 2.77   1 2.77  16 2.77  16 2.77  10 2.83  11 2.83
                            12 2.83
  16  0.500  0.500  0.631-   1 2.77   1 2.77  14 2.77  14 2.77  15 2.77  15 2.77  11 2.83  13 2.83
                            10 2.83
 
  LATTYP: Found a hexagonal cell.
 ALAT       =     5.5437171645
 C/A-ratio  =     4.8324325305
  
  Lattice vectors:
  
 A1 = (   2.7718585823,  -4.8009998959,   0.0000000000)
 A2 = (  -5.5437171645,   0.0000000000,   0.0000000000)
 A3 = (   0.0000000000,   0.0000000000, -26.7896391657)


Analysis of symmetry for initial positions (statically):
=====================================================================
 Subroutine PRICEL returns:
 Original cell was already a primitive cell.
 

 Routine SETGRP: Setting up the symmetry group for a 
 hexagonal supercell.


 Subroutine GETGRP returns: Found  6 space group operations
 (whereof  2 operations were pure point group operations)
 out of a pool of 24 trial point group operations.


The static configuration has the point symmetry C_1h.
 The point group associated with its full space group is C_3v.


Analysis of symmetry for dynamics (positions and initial velocities):
=====================================================================
 Subroutine PRICEL returns:
 Original cell was already a primitive cell.
 

 Routine SETGRP: Setting up the symmetry group for a 
 hexagonal supercell.


 Subroutine GETGRP returns: Found  6 space group operations
 (whereof  2 operations were pure point group operations)
 out of a pool of 24 trial point group operations.


The dynamic configuration has the point symmetry C_1h.
 The point group associated with its full space group is C_3v.


Analysis of constrained symmetry for selective dynamics:
=====================================================================
 Subroutine PRICEL returns:
 Original cell was already a primitive cell.
 

 Routine SETGRP: Setting up the symmetry group for a 
 hexagonal supercell.


 Subroutine GETGRP returns: Found  6 space group operations
 (whereof  2 operations were pure point group operations)
 out of a pool of 24 trial point group operations.


The constrained configuration has the point symmetry C_1h.
 The point group associated with its full space group is C_3v.


 Subroutine INISYM returns: Found  6 space group operations
 (whereof  2 operations are pure point group operations),
 and found     1 'primitive' translations

 
 
 KPOINTS: 0.0.Ir1.Au13                            

Automatic generation of k-mesh.
Space group operators:
 irot       det(A)        alpha          n_x          n_y          n_z        tau_x        tau_y        tau_z
    1     1.000000     0.000001     1.000000     0.000000     0.000000     0.000000     0.000000     0.000000
    2    -1.000000   180.000000     1.000000     0.000000     0.000000     0.000000     0.000000     0.000000
    3     1.000000   120.000000     0.000000     0.000000     1.000000     0.500000    -0.500000     0.000000
    4     1.000000   120.000000     0.000000     0.000000    -1.000000    -0.000000    -0.500000     0.000000
    5    -1.000000   180.000000     0.500000    -0.866025     0.000000     0.500000    -0.500000     0.000000
    6    -1.000000   180.000000    -0.500000    -0.866025     0.000000    -0.000000    -0.500000     0.000000
 
 Subroutine IBZKPT returns following result:
 ===========================================
 
 Found     20 irreducible k-points:
 
 Following reciprocal coordinates:
            Coordinates               Weight
  0.062500  0.062500  0.000000     48.000000
  0.187500  0.062500  0.000000     96.000000
  0.312500  0.062500  0.000000     96.000000
  0.437500  0.062500  0.000000     96.000000
 -0.437500  0.062500  0.000000     96.000000
 -0.312500  0.062500  0.000000     96.000000
 -0.187500  0.062500  0.000000     96.000000
 -0.062500  0.062500  0.000000     48.000000
  0.187500  0.187500  0.000000     48.000000
  0.312500  0.187500  0.000000     96.000000
  0.437500  0.187500  0.000000     96.000000
 -0.437500  0.187500  0.000000     96.000000
 -0.312500  0.187500  0.000000     96.000000
 -0.187500  0.187500  0.000000     48.000000
  0.312500  0.312500  0.000000     48.000000
  0.437500  0.312500  0.000000     96.000000
 -0.437500  0.312500  0.000000     96.000000
 -0.312500  0.312500  0.000000     48.000000
  0.437500  0.437500  0.000000     48.000000
 -0.437500  0.437500  0.000000     48.000000
 
 Following cartesian coordinates:
            Coordinates               Weight
  0.011274  0.006509  0.000000     48.000000
  0.033822 -0.006509  0.000000     96.000000
  0.056370 -0.019527  0.000000     96.000000
  0.078918 -0.032545  0.000000     96.000000
 -0.078918  0.058582  0.000000     96.000000
 -0.056370  0.045563  0.000000     96.000000
 -0.033822  0.032545  0.000000     96.000000
 -0.011274  0.019527  0.000000     48.000000
  0.033822  0.019527  0.000000     48.000000
  0.056370  0.006509  0.000000     96.000000
  0.078918 -0.006509  0.000000     96.000000
 -0.078918  0.084618  0.000000     96.000000
 -0.056370  0.071600  0.000000     96.000000
 -0.033822  0.058582  0.000000     48.000000
  0.056370  0.032545  0.000000     48.000000
  0.078918  0.019527  0.000000     96.000000
 -0.078918  0.110654  0.000000     96.000000
 -0.056370  0.097636  0.000000     48.000000
  0.078918  0.045563  0.000000     48.000000
 -0.078918  0.136690  0.000000     48.000000
 


--------------------------------------------------------------------------------------------------------




 Dimension of arrays:
   k-points           NKPTS =     20   k-points in BZ     NKDIM =     20   number of bands    NBANDS=     96
   number of dos      NEDOS =    301   number of ions     NIONS =     16
   non local maximal  LDIM  =      6   non local SUM 2l+1 LMDIM =     18
   total plane-waves  NPLWV =  98784
   max r-space proj   IRMAX =   2277   max aug-charges    IRDMAX=  10217
   dimension x,y,z NGX =    28 NGY =   28 NGZ =  126
   dimension x,y,z NGXF=    56 NGYF=   56 NGZF=  252
   support grid    NGXF=    56 NGYF=   56 NGZF=  252
   ions per type =               1   1  14
   NGX,Y,Z   is equivalent  to a cutoff of   8.40,  8.40,  7.82 a.u.
   NGXF,Y,Z  is equivalent  to a cutoff of  16.79, 16.79, 15.64 a.u.

 SYSTEM =  0.0.Ir1.Au13                            
 POSCAR =  Au Ir Pt                                

 Startparameter for this run:
   NWRITE =      2    write-flag & timer
   PREC   = normal    normal or accurate (medium, high low for compatibility)
   ISTART =      0    job   : 0-new  1-cont  2-samecut
   ICHARG =      2    charge: 1-file 2-atom 10-const
   ISPIN  =      1    spin polarized calculation?
   LNONCOLLINEAR =      F non collinear calculations
   LSORBIT =      F    spin-orbit coupling
   INIWAV =      1    electr: 0-lowe 1-rand  2-diag
   LASPH  =      F    aspherical Exc in radial PAW
   METAGGA=      F    non-selfconsistent MetaGGA calc.

 Electronic Relaxation 1
   ENCUT  =  350.0 eV  25.72 Ry    5.07 a.u.   8.46  8.46 40.87*2*pi/ulx,y,z
   ENINI  =  350.0     initial cutoff
   ENAUG  =  359.0 eV  augmentation charge cutoff
   NELM   =   1000;   NELMIN=  5; NELMDL= -5     # of ELM steps 
   EDIFF  = 0.1E-04   stopping-criterion for ELM
   LREAL  =      T    real-space projection
   NLSPLINE    = F    spline interpolate recip. space projectors
   LCOMPAT=      F    compatible to vasp.4.4
   GGA_COMPAT  = T    GGA compatible to vasp.4.4-vasp.4.6
   LMAXPAW     = -100 max onsite density
   LMAXMIX     =    2 max onsite mixed and CHGCAR
   VOSKOWN=      0    Vosko Wilk Nusair interpolation
   ROPT   =   -0.00050  -0.00050  -0.00050
 Ionic relaxation
   EDIFFG = 0.1E-03   stopping-criterion for IOM
   NSW    =      0    number of steps for IOM
   NBLOCK =      1;   KBLOCK =      1    inner block; outer block 
   IBRION =     -1    ionic relax: 0-MD 1-quasi-New 2-CG
   NFREE  =      0    steps in history (QN), initial steepest desc. (CG)
   ISIF   =      2    stress and relaxation
   IWAVPR =     10    prediction:  0-non 1-charg 2-wave 3-comb
   ISYM   =      2    0-nonsym 1-usesym 2-fastsym
   LCORR  =      T    Harris-Foulkes like correction to forces

   POTIM  = 0.5000    time-step for ionic-motion
   TEIN   =    0.0    initial temperature
   TEBEG  =    0.0;   TEEND  =   0.0 temperature during run
   SMASS  =  -3.00    Nose mass-parameter (am)
   estimated Nose-frequenzy (Omega)   =  0.10E-29 period in steps =****** mass=  -0.702E-27a.u.
   SCALEE = 1.0000    scale energy and forces
   NPACO  =    256;   APACO  = 16.0  distance and # of slots for P.C.
   PSTRESS=    0.0 pullay stress

  Mass of Ions in am
   POMASS = 196.97192.22195.08
  Ionic Valenz
   ZVAL   =  11.00  9.00 10.00
  Atomic Wigner-Seitz radii
   RWIGS  =  -1.00 -1.00 -1.00
  virtual crystal weights 
   VCA    =   1.00  1.00  1.00
   NELECT =     160.0000    total number of electrons
   NUPDOWN=      -1.0000    fix difference up-down

 DOS related values:
   EMIN   =  10.00;   EMAX   =-10.00  energy-range for DOS
   EFERMI =   0.00
   ISMEAR =     1;   SIGMA  =   0.20  broadening in eV -4-tet -1-fermi 0-gaus

 Electronic relaxation 2 (details)
   IALGO  =     38    algorithm
   LDIAG  =      T    sub-space diagonalisation (order eigenvalues)
   LSUBROT=      F    optimize rotation matrix (better conditioning)
   TURBO    =      0    0=normal 1=particle mesh
   IRESTART =      0    0=no restart 2=restart with 2 vectors
   NREBOOT  =      0    no. of reboots
   NMIN     =      0    reboot dimension
   EREF     =   0.00    reference energy to select bands
   IMIX   =      4    mixing-type and parameters
     AMIX     =   0.40;   BMIX     =  1.00
     AMIX_MAG =   1.60;   BMIX_MAG =  1.00
     AMIN     =   0.10
     WC   =   100.;   INIMIX=   1;  MIXPRE=   1;  MAXMIX= -45

 Intra band minimization:
   WEIMIN = 0.0000     energy-eigenvalue tresh-hold
   EBREAK =  0.26E-07  absolut break condition
   DEPER  =   0.30     relativ break condition  

   TIME   =   0.40     timestep for ELM

  volume/ion in A,a.u.               =      44.56       300.73
  Fermi-wavevector in a.u.,A,eV,Ry     =   0.994829  1.879954 13.465469  0.989684
  Thomas-Fermi vector in A             =   2.126807
 
 Write flags
   LWAVE        =      F    write WAVECAR
   LDOWNSAMPLE  =      F    k-point downsampling of WAVECAR
   LCHARG       =      F    write CHGCAR
   LVTOT        =      F    write LOCPOT, total local potential
   LVHAR        =      F    write LOCPOT, Hartree potential only
   LELF         =      F    write electronic localiz. function (ELF)
   LORBIT       =      0    0 simple, 1 ext, 2 COOP (PROOUT), +10 PAW based schemes


 Dipole corrections
   LMONO  =      F    monopole corrections only (constant potential shift)
   LDIPOL =      F    correct potential (dipole corrections)
   IDIPOL =      3    1-x, 2-y, 3-z, 4-all directions 
   EPSILON=  1.0000000 bulk dielectric constant

 Exchange correlation treatment:
   GGA     =    --    GGA type
   LEXCH   =     8    internal setting for exchange type
   VOSKOWN=      0    Vosko Wilk Nusair interpolation
   LHFCALC =     F    Hartree Fock is set to
   LHFONE  =     F    Hartree Fock one center treatment
   AEXX    =    0.0000 exact exchange contribution

 Linear response parameters
   LEPSILON=     F    determine dielectric tensor
   LRPA    =     F    only Hartree local field effects (RPA)
   LNABLA  =     F    use nabla operator in PAW spheres
   LVEL    =     F    velocity operator in full k-point grid
   LINTERFAST=   F  fast interpolation
   KINTER  =     0    interpolate to denser k-point grid
   CSHIFT  =0.1000    complex shift for real part using Kramers Kronig
   OMEGAMAX=  -1.0    maximum frequency
   DEG_THRESHOLD= 0.2000000E-02 threshold for treating states as degnerate
   RTIME   =   -0.100 relaxation time in fs
  (WPLASMAI=    0.000 imaginary part of plasma frequency in eV, 0.658/RTIME)
   DFIELD  = 0.0000000 0.0000000 0.0000000 field for delta impulse in time
 
 Orbital magnetization related:
   ORBITALMAG=     F  switch on orbital magnetization
   LCHIMAG   =     F  perturbation theory with respect to B field
   DQ        =  0.001000  dq finite difference perturbation B field
   LLRAUG    =     F  two centre corrections for induced B field



--------------------------------------------------------------------------------------------------------


 Static calculation
 charge density and potential will be updated during run
 non-spin polarized calculation
 Variant of blocked Davidson
 Davidson routine will perform the subspace rotation
 perform sub-space diagonalisation
    after iterative eigenvector-optimisation
 modified Broyden-mixing scheme, WC =      100.0
 initial mixing is a Kerker type mixing with AMIX =  0.4000 and BMIX =      1.0000
 Hartree-type preconditioning will be used
 using additional bands           16
 real space projection scheme for non local part
 use partial core corrections
 calculate Harris-corrections to forces 
   (improved forces if not selfconsistent)
 use gradient corrections 
 use of overlap-Matrix (Vanderbilt PP)
 Methfessel and Paxton  Order N= 1 SIGMA  =   0.20


--------------------------------------------------------------------------------------------------------


  energy-cutoff  :      350.00
  volume of cell :      713.02
      direct lattice vectors                 reciprocal lattice vectors
     5.543717165  0.000000000  0.000000000     0.180384383 -0.104144972  0.000000000
     2.771858582  4.800999896  0.000000000     0.000000000  0.208289944  0.000000000
     0.000000000  0.000000000 26.789639166     0.000000000  0.000000000  0.037327864

  length of vectors
     5.543717165  5.543717165 26.789639166     0.208289944  0.208289944  0.037327864


 
 k-points in units of 2pi/SCALE and weight: 0.0.Ir1.Au13                            
   0.01127402  0.00650906  0.00000000       0.031
   0.03382207 -0.00650906  0.00000000       0.062
   0.05637012 -0.01952718  0.00000000       0.062
   0.07891817 -0.03254530  0.00000000       0.062
  -0.07891817  0.05858155  0.00000000       0.062
  -0.05637012  0.04556343  0.00000000       0.062
  -0.03382207  0.03254530  0.00000000       0.062
  -0.01127402  0.01952718  0.00000000       0.031
   0.03382207  0.01952718  0.00000000       0.031
   0.05637012  0.00650906  0.00000000       0.062
   0.07891817 -0.00650906  0.00000000       0.062
  -0.07891817  0.08461779  0.00000000       0.062
  -0.05637012  0.07159967  0.00000000       0.062
  -0.03382207  0.05858155  0.00000000       0.031
   0.05637012  0.03254530  0.00000000       0.031
   0.07891817  0.01952718  0.00000000       0.062
  -0.07891817  0.11065403  0.00000000       0.062
  -0.05637012  0.09763591  0.00000000       0.031
   0.07891817  0.04556343  0.00000000       0.031
  -0.07891817  0.13669028  0.00000000       0.031
 
 k-points in reciprocal lattice and weights: 0.0.Ir1.Au13                            
   0.06250000  0.06250000  0.00000000       0.031
   0.18750000  0.06250000  0.00000000       0.062
   0.31250000  0.06250000  0.00000000       0.062
   0.43750000  0.06250000  0.00000000       0.062
  -0.43750000  0.06250000  0.00000000       0.062
  -0.31250000  0.06250000  0.00000000       0.062
  -0.18750000  0.06250000  0.00000000       0.062
  -0.06250000  0.06250000  0.00000000       0.031
   0.18750000  0.18750000  0.00000000       0.031
   0.31250000  0.18750000  0.00000000       0.062
   0.43750000  0.18750000  0.00000000       0.062
  -0.43750000  0.18750000  0.00000000       0.062
  -0.31250000  0.18750000  0.00000000       0.062
  -0.18750000  0.18750000  0.00000000       0.031
   0.31250000  0.31250000  0.00000000       0.031
   0.43750000  0.31250000  0.00000000       0.062
  -0.43750000  0.31250000  0.00000000       0.062
  -0.31250000  0.31250000  0.00000000       0.031
   0.43750000  0.43750000  0.00000000       0.031
  -0.43750000  0.43750000  0.00000000       0.031
 
 position of ions in fractional coordinates (direct lattice) 
   0.50000000  0.00000000  0.63112717
   0.50000000  0.00000000  0.37327864
   0.00000000  0.00000000  0.37327864
   0.00000000  0.50000000  0.37327864
   0.50000000  0.50000000  0.37327864
   0.16666667  0.16666667  0.45775955
   0.66666667  0.16666667  0.45775955
   0.16666667  0.66666667  0.45775955
   0.66666667  0.66666667  0.45775955
   0.83333333  0.33333333  0.54381573
   0.33333333  0.33333333  0.54381573
   0.83333333  0.83333333  0.54381573
   0.33333333  0.83333333  0.54381573
   0.00000000  0.00000000  0.63112717
   0.00000000  0.50000000  0.63112717
   0.50000000  0.50000000  0.63112717
 
 position of ions in cartesian coordinates  (Angst):
   2.77185858  0.00000000 16.90766902
   2.77185858  0.00000000 10.00000000
   0.00000000  0.00000000 10.00000000
   1.38592929  2.40049995 10.00000000
   4.15778787  2.40049995 10.00000000
   1.38592929  0.80016665 12.26321306
   4.15778787  0.80016665 12.26321306
   2.77185858  3.20066660 12.26321306
   5.54371716  3.20066660 12.26321306
   5.54371716  1.60033330 14.56862716
   2.77185858  1.60033330 14.56862716
   6.92964646  4.00083325 14.56862716
   4.15778787  4.00083325 14.56862716
   0.00000000  0.00000000 16.90766902
   1.38592929  2.40049995 16.90766902
   4.15778787  2.40049995 16.90766902
 


--------------------------------------------------------------------------------------------------------


 k-point  1 :   0.0625 0.0625 0.0000  plane waves:   10681
 k-point  2 :   0.1875 0.0625 0.0000  plane waves:   10654
 k-point  3 :   0.3125 0.0625 0.0000  plane waves:   10616
 k-point  4 :   0.4375 0.0625 0.0000  plane waves:   10577
 k-point  5 :  -0.4375 0.0625 0.0000  plane waves:   10551
 k-point  6 :  -0.3125 0.0625 0.0000  plane waves:   10587
 k-point  7 :  -0.1875 0.0625 0.0000  plane waves:   10616
 k-point  8 :  -0.0625 0.0625 0.0000  plane waves:   10677
 k-point  9 :   0.1875 0.1875 0.0000  plane waves:   10631
 k-point 10 :   0.3125 0.1875 0.0000  plane waves:   10620
 k-point 11 :   0.4375 0.1875 0.0000  plane waves:   10599
 k-point 12 :  -0.4375 0.1875 0.0000  plane waves:   10577
 k-point 13 :  -0.3125 0.1875 0.0000  plane waves:   10577
 k-point 14 :  -0.1875 0.1875 0.0000  plane waves:   10613
 k-point 15 :   0.3125 0.3125 0.0000  plane waves:   10603
 k-point 16 :   0.4375 0.3125 0.0000  plane waves:   10605
 k-point 17 :  -0.4375 0.3125 0.0000  plane waves:   10593
 k-point 18 :  -0.3125 0.3125 0.0000  plane waves:   10592
 k-point 19 :   0.4375 0.4375 0.0000  plane waves:   10562
 k-point 20 :  -0.4375 0.4375 0.0000  plane waves:   10550

 maximum and minimum number of plane-waves per node :      2678     2619

 maximum number of plane-waves:     10681
 maximum index in each direction: 
   IXMAX=    8   IYMAX=    8   IZMAX=   40
   IXMIN=   -8   IYMIN=   -8   IZMIN=  -40


 real space projection operators:
  total allocation   :       4856.06 KBytes
  max/ min on nodes  :       1216.41       1211.62


 parallel 3D FFT for wavefunctions:
    minimum data exchange during FFTs selected (reduces bandwidth)
 parallel 3D FFT for charge:
    minimum data exchange during FFTs selected (reduces bandwidth)


 total amount of memory used by VASP MPI-rank0    60524. kBytes
=======================================================================

   base      :      30000. kBytes
   nonlr-proj:       2110. kBytes
   fftplans  :       2592. kBytes
   grid      :       4625. kBytes
   one-center:         62. kBytes
   wavefun   :      21135. kBytes
 
     INWAV:  cpu time    0.0000: real time    0.0000
 Broyden mixing: mesh for mixing (old mesh)
   NGX = 17   NGY = 17   NGZ = 81
  (NGX  = 56   NGY  = 56   NGZ  =252)
  gives a total of  23409 points

 initial charge density was supplied:
 charge density of overlapping atoms calculated
 number of electron     160.0000000 magnetization 
 keeping initial charge density in first step


--------------------------------------------------------------------------------------------------------


 Maximum index for non-local projection operator          548
 Maximum index for augmentation-charges          730 (set IRDMAX)


--------------------------------------------------------------------------------------------------------


 First call to EWALD:  gamma=   0.198
 Maximum number of real-space cells 5x 5x 1
 Maximum number of reciprocal cells 2x 2x 7

    FEWALD:  cpu time    0.0012: real time    0.0012


--------------------------------------- Iteration      1(   1)  ---------------------------------------


    POTLOK:  cpu time    0.0212: real time    0.0267
    SETDIJ:  cpu time    0.0025: real time    0.0025
     EDDAV:  cpu time    2.3987: real time    2.3989
       DOS:  cpu time    0.0018: real time    0.0018
    --------------------------------------------
      LOOP:  cpu time    2.4242: real time    2.4299

 eigenvalue-minimisations  :  3864
 total energy-change (2. order) : 0.9771096E+03  (-0.5659837E+04)
 number of electron     160.0000000 magnetization 
 augmentation part      160.0000000 magnetization 

 Free energy of the ion-electron system (eV)
  ---------------------------------------------------
  alpha Z        PSCENC =       350.82459594
  Ewald energy   TEWEN  =     72997.71936392
  -Hartree energ DENC   =    -85232.38219549
  -exchange      EXHF   =         0.00000000
  -V(xc)+E(xc)   XCENC  =        46.84694270
  PAW double counting   =     11171.21661038   -10711.84633960
  entropy T*S    EENTRO =        -0.00843968
  eigenvalues    EBANDS =       661.04483375
  atomic energy  EATOM  =     11693.69420960
  Solvation  Ediel_sol  =         0.00000000
  ---------------------------------------------------
  free energy    TOTEN  =       977.10958152 eV

  energy without entropy =      977.11802120  energy(sigma->0) =      977.11239475


--------------------------------------------------------------------------------------------------------




--------------------------------------- Iteration      1(   2)  ---------------------------------------


     EDDAV:  cpu time    2.7792: real time    2.7795
       DOS:  cpu time    0.0021: real time    0.0021
    --------------------------------------------
      LOOP:  cpu time    2.7813: real time    2.7816

 eigenvalue-minimisations  :  4712
 total energy-change (2. order) :-0.9950838E+03  (-0.9159174E+03)
 number of electron     160.0000000 magnetization 
 augmentation part      160.0000000 magnetization 

 Free energy of the ion-electron system (eV)
  ---------------------------------------------------
  alpha Z        PSCENC =       350.82459594
  Ewald energy   TEWEN  =     72997.71936392
  -Hartree energ DENC   =    -85232.38219549
  -exchange      EXHF   =         0.00000000
  -V(xc)+E(xc)   XCENC  =        46.84694270
  PAW double counting   =     11171.21661038   -10711.84633960
  entropy T*S    EENTRO =         0.01612016
  eigenvalues    EBANDS =      -334.06349708
  atomic energy  EATOM  =     11693.69420960
  Solvation  Ediel_sol  =         0.00000000
  ---------------------------------------------------
  free energy    TOTEN  =       -17.97418948 eV

  energy without entropy =      -17.99030964  energy(sigma->0) =      -17.97956287


--------------------------------------------------------------------------------------------------------




--------------------------------------- Iteration      1(   3)  ---------------------------------------


     EDDAV:  cpu time    2.7374: real time    2.7375
       DOS:  cpu time    0.0022: real time    0.0022
    --------------------------------------------
      LOOP:  cpu time    2.7397: real time    2.7397

 eigenvalue-minimisations  :  4608
 total energy-change (2. order) :-0.7711495E+02  (-0.6944471E+02)
 number of electron     160.0000000 magnetization 
 augmentation part      160.0000000 magnetization 

 Free energy of the ion-electron system (eV)
  ---------------------------------------------------
  alpha Z        PSCENC =       350.82459594
  Ewald energy   TEWEN  =     72997.71936392
  -Hartree energ DENC   =    -85232.38219549
  -exchange      EXHF   =         0.00000000
  -V(xc)+E(xc)   XCENC  =        46.84694270
  PAW double counting   =     11171.21661038   -10711.84633960
  entropy T*S    EENTRO =        -0.02512090
  eigenvalues    EBANDS =      -411.13720253
  atomic energy  EATOM  =     11693.69420960
  Solvation  Ediel_sol  =         0.00000000
  ---------------------------------------------------
  free energy    TOTEN  =       -95.08913599 eV

  energy without entropy =      -95.06401509  energy(sigma->0) =      -95.08076235


--------------------------------------------------------------------------------------------------------




--------------------------------------- Iteration      1(   4)  ---------------------------------------


     EDDAV:  cpu time    3.0172: real time    3.0177
       DOS:  cpu time    0.0022: real time    0.0022
    --------------------------------------------
      LOOP:  cpu time    3.0193: real time    3.0199

 eigenvalue-minimisations  :  5208
 total energy-change (2. order) :-0.3154853E+01  (-0.3046988E+01)
 number of electron     160.0000000 magnetization 
 augmentation part      160.0000000 magnetization 

 Free energy of the ion-electron system (eV)
  ---------------------------------------------------
  alpha Z        PSCENC =       350.82459594
  Ewald energy   TEWEN  =     72997.71936392
  -Hartree energ DENC   =    -85232.38219549
  -exchange      EXHF   =         0.00000000
  -V(xc)+E(xc)   XCENC  =        46.84694270
  PAW double counting   =     11171.21661038   -10711.84633960
  entropy T*S    EENTRO =        -0.02487876
  eigenvalues    EBANDS =      -414.29229764
  atomic energy  EATOM  =     11693.69420960
  Solvation  Ediel_sol  =         0.00000000
  ---------------------------------------------------
  free energy    TOTEN  =       -98.24398895 eV

  energy without entropy =      -98.21911019  energy(sigma->0) =      -98.23569603


--------------------------------------------------------------------------------------------------------




--------------------------------------- Iteration      1(   5)  ---------------------------------------


     EDDAV:  cpu time    2.9168: real time    2.9170
       DOS:  cpu time    0.0023: real time    0.0023
    CHARGE:  cpu time    0.1378: real time    0.1378
    MIXING:  cpu time    0.0011: real time    0.0011
    --------------------------------------------
      LOOP:  cpu time    3.0580: real time    3.0582

 eigenvalue-minimisations  :  5000
 total energy-change (2. order) :-0.7968465E-01  (-0.7939980E-01)
 number of electron     160.0000134 magnetization 
 augmentation part       46.9772128 magnetization 

 Broyden mixing:
  rms(total) = 0.42938E+01    rms(broyden)= 0.42937E+01
  rms(prec ) = 0.43309E+01
  weight for this iteration     100.00

 Free energy of the ion-electron system (eV)
  ---------------------------------------------------
  alpha Z        PSCENC =       350.82459594
  Ewald energy   TEWEN  =     72997.71936392
  -Hartree energ DENC   =    -85232.38219549
  -exchange      EXHF   =         0.00000000
  -V(xc)+E(xc)   XCENC  =        46.84694270
  PAW double counting   =     11171.21661038   -10711.84633960
  entropy T*S    EENTRO =        -0.02473729
  eigenvalues    EBANDS =      -414.37212375
  atomic energy  EATOM  =     11693.69420960
  Solvation  Ediel_sol  =         0.00000000
  ---------------------------------------------------
  free energy    TOTEN  =       -98.32367360 eV

  energy without entropy =      -98.29893631  energy(sigma->0) =      -98.31542783


--------------------------------------------------------------------------------------------------------




--------------------------------------- Iteration      1(   6)  ---------------------------------------


    POTLOK:  cpu time    0.0198: real time    0.0199
    SETDIJ:  cpu time    0.0023: real time    0.0023
     EDDAV:  cpu time    2.6169: real time    2.6169
       DOS:  cpu time    0.0022: real time    0.0022
    CHARGE:  cpu time    0.1392: real time    0.1392
    MIXING:  cpu time    0.0010: real time    0.0010
    --------------------------------------------
      LOOP:  cpu time    2.7814: real time    2.7816

 eigenvalue-minimisations  :  4376
 total energy-change (2. order) : 0.3669685E+01  (-0.1948228E+01)
 number of electron     160.0000123 magnetization 
 augmentation part       49.4958272 magnetization 

 Broyden mixing:
  rms(total) = 0.32197E+01    rms(broyden)= 0.32196E+01
  rms(prec ) = 0.34670E+01
  weight for this iteration     100.00

 eigenvalues of (default mixing * dielectric matrix)
  average eigenvalue GAMMA=   1.2188
  1.2188

 Free energy of the ion-electron system (eV)
  ---------------------------------------------------
  alpha Z        PSCENC =       350.82459594
  Ewald energy   TEWEN  =     72997.71936392
  -Hartree energ DENC   =    -85052.08787565
  -exchange      EXHF   =         0.00000000
  -V(xc)+E(xc)   XCENC  =        42.71819489
  PAW double counting   =     12376.16753974   -11940.37991579
  entropy T*S    EENTRO =        -0.01541075
  eigenvalues    EBANDS =      -563.29469030
  atomic energy  EATOM  =     11693.69420960
  Solvation  Ediel_sol  =         0.00000000
  ---------------------------------------------------
  free energy    TOTEN  =       -94.65398840 eV

  energy without entropy =      -94.63857764  energy(sigma->0) =      -94.64885148


--------------------------------------------------------------------------------------------------------




--------------------------------------- Iteration      1(   7)  ---------------------------------------


    POTLOK:  cpu time    0.0183: real time    0.0183
    SETDIJ:  cpu time    0.0025: real time    0.0025
     EDDAV:  cpu time    3.3013: real time    3.3014
       DOS:  cpu time    0.0022: real time    0.0022
    CHARGE:  cpu time    0.1381: real time    0.1381
    MIXING:  cpu time    0.0011: real time    0.0011
    --------------------------------------------
      LOOP:  cpu time    3.4634: real time    3.4635

 eigenvalue-minimisations  :  5824
 total energy-change (2. order) :-0.4324111E+02  (-0.1270066E+02)
 number of electron     160.0000149 magnetization 
 augmentation part       47.7704765 magnetization 

 Broyden mixing:
  rms(total) = 0.54989E+01    rms(broyden)= 0.54989E+01
  rms(prec ) = 0.70091E+01
  weight for this iteration     100.00

 eigenvalues of (default mixing * dielectric matrix)
  average eigenvalue GAMMA=   1.0278
  1.8701  0.1855

 Free energy of the ion-electron system (eV)
  ---------------------------------------------------
  alpha Z        PSCENC =       350.82459594
  Ewald energy   TEWEN  =     72997.71936392
  -Hartree energ DENC   =    -85157.58018685
  -exchange      EXHF   =         0.00000000
  -V(xc)+E(xc)   XCENC  =        41.63317475
  PAW double counting   =     13106.60424943   -12679.72866115
  entropy T*S    EENTRO =        -0.02173194
  eigenvalues    EBANDS =      -491.04011316
  atomic energy  EATOM  =     11693.69420960
  Solvation  Ediel_sol  =         0.00000000
  ---------------------------------------------------
  free energy    TOTEN  =      -137.89509946 eV

  energy without entropy =     -137.87336752  energy(sigma->0) =     -137.88785548


--------------------------------------------------------------------------------------------------------




--------------------------------------- Iteration      1(   8)  ---------------------------------------


    POTLOK:  cpu time    0.0186: real time    0.0188
    SETDIJ:  cpu time    0.0024: real time    0.0024
     EDDAV:  cpu time    3.1265: real time    3.1265
       DOS:  cpu time    0.0023: real time    0.0023
    CHARGE:  cpu time    0.1366: real time    0.1366
    MIXING:  cpu time    0.0010: real time    0.0010
    --------------------------------------------
      LOOP:  cpu time    3.2875: real time    3.2877

 eigenvalue-minimisations  :  5456
 total energy-change (2. order) : 0.2013322E+02  (-0.4879995E+01)
 number of electron     160.0000165 magnetization 
 augmentation part       49.2138449 magnetization 

 Broyden mixing:
  rms(total) = 0.42785E+01    rms(broyden)= 0.42784E+01
  rms(prec ) = 0.49345E+01
  weight for this iteration     100.00

 eigenvalues of (default mixing * dielectric matrix)
  average eigenvalue GAMMA=   0.8796
  2.1763  0.2313  0.2313

 Free energy of the ion-electron system (eV)
  ---------------------------------------------------
  alpha Z        PSCENC =       350.82459594
  Ewald energy   TEWEN  =     72997.71936392
  -Hartree energ DENC   =    -85158.02768773
  -exchange      EXHF   =         0.00000000
  -V(xc)+E(xc)   XCENC  =        40.61566947
  PAW double counting   =     13888.31215360   -13471.77046278
  entropy T*S    EENTRO =        -0.00085298
  eigenvalues    EBANDS =      -459.12886790
  atomic energy  EATOM  =     11693.69420960
  Solvation  Ediel_sol  =         0.00000000
  ---------------------------------------------------
  free energy    TOTEN  =      -117.76187886 eV

  energy without entropy =     -117.76102588  energy(sigma->0) =     -117.76159453


--------------------------------------------------------------------------------------------------------




--------------------------------------- Iteration      1(   9)  ---------------------------------------


    POTLOK:  cpu time    0.0187: real time    0.0190
    SETDIJ:  cpu time    0.0024: real time    0.0024
     EDDAV:  cpu time    3.4871: real time    3.4872
       DOS:  cpu time    0.0023: real time    0.0023
    CHARGE:  cpu time    0.1364: real time    0.1364
    MIXING:  cpu time    0.0010: real time    0.0010
    --------------------------------------------
      LOOP:  cpu time    3.6479: real time    3.6483

 eigenvalue-minimisations  :  6224
 total energy-change (2. order) : 0.1075155E+02  (-0.4384419E+01)
 number of electron     160.0000148 magnetization 
 augmentation part       50.0273579 magnetization 

 Broyden mixing:
  rms(total) = 0.29066E+01    rms(broyden)= 0.29065E+01
  rms(prec ) = 0.39997E+01
  weight for this iteration     100.00

 eigenvalues of (default mixing * dielectric matrix)
  average eigenvalue GAMMA=   0.8374
  2.1715  0.6621  0.3590  0.1572

 Free energy of the ion-electron system (eV)
  ---------------------------------------------------
  alpha Z        PSCENC =       350.82459594
  Ewald energy   TEWEN  =     72997.71936392
  -Hartree energ DENC   =    -85025.90546288
  -exchange      EXHF   =         0.00000000
  -V(xc)+E(xc)   XCENC  =        40.18921518
  PAW double counting   =     14328.83021941   -13917.71119192
  entropy T*S    EENTRO =        -0.01335701
  eigenvalues    EBANDS =      -574.63791849
  atomic energy  EATOM  =     11693.69420960
  Solvation  Ediel_sol  =         0.00000000
  ---------------------------------------------------
  free energy    TOTEN  =      -107.01032627 eV

  energy without entropy =     -106.99696926  energy(sigma->0) =     -107.00587393


--------------------------------------------------------------------------------------------------------




--------------------------------------- Iteration      1(  10)  ---------------------------------------


    POTLOK:  cpu time    0.0181: real time    0.0212
    SETDIJ:  cpu time    0.0024: real time    0.0024
     EDDAV:  cpu time    2.9805: real time    2.9805
       DOS:  cpu time    0.0022: real time    0.0022
    CHARGE:  cpu time    0.1396: real time    0.1396
    MIXING:  cpu time    0.0010: real time    0.0010
    --------------------------------------------
      LOOP:  cpu time    3.1439: real time    3.1471

 eigenvalue-minimisations  :  5152
 total energy-change (2. order) : 0.1322634E+02  (-0.2484878E+01)
 number of electron     160.0000149 magnetization 
 augmentation part       50.3509355 magnetization 

 Broyden mixing:
  rms(total) = 0.13595E+01    rms(broyden)= 0.13594E+01
  rms(prec ) = 0.15327E+01
  weight for this iteration     100.00

 eigenvalues of (default mixing * dielectric matrix)
  average eigenvalue GAMMA=   0.7238
  2.1177  0.5349  0.5349  0.2733  0.1581

 Free energy of the ion-electron system (eV)
  ---------------------------------------------------
  alpha Z        PSCENC =       350.82459594
  Ewald energy   TEWEN  =     72997.71936392
  -Hartree energ DENC   =    -85053.72211563
  -exchange      EXHF   =         0.00000000
  -V(xc)+E(xc)   XCENC  =        40.88276721
  PAW double counting   =     14503.52741218   -14090.76260365
  entropy T*S    EENTRO =        -0.01235766
  eigenvalues    EBANDS =      -535.93525587
  atomic energy  EATOM  =     11693.69420960
  Solvation  Ediel_sol  =         0.00000000
  ---------------------------------------------------
  free energy    TOTEN  =       -93.78398397 eV

  energy without entropy =      -93.77162631  energy(sigma->0) =      -93.77986475


--------------------------------------------------------------------------------------------------------




--------------------------------------- Iteration      1(  11)  ---------------------------------------


    POTLOK:  cpu time    0.0183: real time    0.0184
    SETDIJ:  cpu time    0.0024: real time    0.0024
     EDDAV:  cpu time    3.2141: real time    3.2142
       DOS:  cpu time    0.0023: real time    0.0023
    CHARGE:  cpu time    0.1413: real time    0.1413
    MIXING:  cpu time    0.0012: real time    0.0012
    --------------------------------------------
      LOOP:  cpu time    3.3796: real time    3.3798

 eigenvalue-minimisations  :  5632
 total energy-change (2. order) : 0.1553681E+01  (-0.1000328E+01)
 number of electron     160.0000137 magnetization 
 augmentation part       50.1889198 magnetization 

 Broyden mixing:
  rms(total) = 0.67496E+00    rms(broyden)= 0.67476E+00
  rms(prec ) = 0.71504E+00
  weight for this iteration     100.00

 eigenvalues of (default mixing * dielectric matrix)
  average eigenvalue GAMMA=   0.7083
  2.0799  0.6809  0.6809  0.4214  0.1609  0.2255

 Free energy of the ion-electron system (eV)
  ---------------------------------------------------
  alpha Z        PSCENC =       350.82459594
  Ewald energy   TEWEN  =     72997.71936392
  -Hartree energ DENC   =    -85046.71893240
  -exchange      EXHF   =         0.00000000
  -V(xc)+E(xc)   XCENC  =        40.91588537
  PAW double counting   =     14509.63583819   -14096.35434499
  entropy T*S    EENTRO =        -0.02142099
  eigenvalues    EBANDS =      -541.92549726
  atomic energy  EATOM  =     11693.69420960
  Solvation  Ediel_sol  =         0.00000000
  ---------------------------------------------------
  free energy    TOTEN  =       -92.23030261 eV

  energy without entropy =      -92.20888162  energy(sigma->0) =      -92.22316228


--------------------------------------------------------------------------------------------------------




--------------------------------------- Iteration      1(  12)  ---------------------------------------


    POTLOK:  cpu time    0.0194: real time    0.0196
    SETDIJ:  cpu time    0.0023: real time    0.0023
     EDDAV:  cpu time    2.6370: real time    2.6371
       DOS:  cpu time    0.0024: real time    0.0024
    CHARGE:  cpu time    0.1461: real time    0.1461
    MIXING:  cpu time    0.0014: real time    0.0014
    --------------------------------------------
      LOOP:  cpu time    2.8087: real time    2.8089

 eigenvalue-minimisations  :  4384
 total energy-change (2. order) : 0.2954057E-01  (-0.8076337E-01)
 number of electron     160.0000136 magnetization 
 augmentation part       50.1637741 magnetization 

 Broyden mixing:
  rms(total) = 0.53249E+00    rms(broyden)= 0.53247E+00
  rms(prec ) = 0.62189E+00
  weight for this iteration     100.00

 eigenvalues of (default mixing * dielectric matrix)
  average eigenvalue GAMMA=   0.7065
  2.0813  0.7766  0.6720  0.6720  0.1593  0.3296  0.2545

 Free energy of the ion-electron system (eV)
  ---------------------------------------------------
  alpha Z        PSCENC =       350.82459594
  Ewald energy   TEWEN  =     72997.71936392
  -Hartree energ DENC   =    -85043.46550408
  -exchange      EXHF   =         0.00000000
  -V(xc)+E(xc)   XCENC  =        40.97674525
  PAW double counting   =     14488.54562542   -14075.12923188
  entropy T*S    EENTRO =        -0.02827312
  eigenvalues    EBANDS =      -545.33829310
  atomic energy  EATOM  =     11693.69420960
  Solvation  Ediel_sol  =         0.00000000
  ---------------------------------------------------
  free energy    TOTEN  =       -92.20076205 eV

  energy without entropy =      -92.17248893  energy(sigma->0) =      -92.19133767


--------------------------------------------------------------------------------------------------------




--------------------------------------- Iteration      1(  13)  ---------------------------------------


    POTLOK:  cpu time    0.0194: real time    0.0195
    SETDIJ:  cpu time    0.0024: real time    0.0024
     EDDAV:  cpu time    2.5616: real time    2.5616
       DOS:  cpu time    0.0023: real time    0.0023
    CHARGE:  cpu time    0.1420: real time    0.1420
    MIXING:  cpu time    0.0012: real time    0.0012
    --------------------------------------------
      LOOP:  cpu time    2.7289: real time    2.7291

 eigenvalue-minimisations  :  4232
 total energy-change (2. order) : 0.8462583E-01  (-0.4787842E-01)
 number of electron     160.0000138 magnetization 
 augmentation part       50.1454469 magnetization 

 Broyden mixing:
  rms(total) = 0.34681E+00    rms(broyden)= 0.34678E+00
  rms(prec ) = 0.35608E+00
  weight for this iteration     100.00

 eigenvalues of (default mixing * dielectric matrix)
  average eigenvalue GAMMA=   0.7523
  2.0399  1.1012  1.1012  0.5728  0.4995  0.1593  0.2947  0.2498

 Free energy of the ion-electron system (eV)
  ---------------------------------------------------
  alpha Z        PSCENC =       350.82459594
  Ewald energy   TEWEN  =     72997.71936392
  -Hartree energ DENC   =    -85044.54635344
  -exchange      EXHF   =         0.00000000
  -V(xc)+E(xc)   XCENC  =        40.99281656
  PAW double counting   =     14457.39412024   -14044.04258778
  entropy T*S    EENTRO =        -0.02916836
  eigenvalues    EBANDS =      -544.12313290
  atomic energy  EATOM  =     11693.69420960
  Solvation  Ediel_sol  =         0.00000000
  ---------------------------------------------------
  free energy    TOTEN  =       -92.11613622 eV

  energy without entropy =      -92.08696786  energy(sigma->0) =      -92.10641343


--------------------------------------------------------------------------------------------------------




--------------------------------------- Iteration      1(  14)  ---------------------------------------


    POTLOK:  cpu time    0.0186: real time    0.0186
    SETDIJ:  cpu time    0.0024: real time    0.0024
     EDDAV:  cpu time    3.0240: real time    3.0241
       DOS:  cpu time    0.0023: real time    0.0023
    CHARGE:  cpu time    0.1404: real time    0.1404
    MIXING:  cpu time    0.0013: real time    0.0013
    --------------------------------------------
      LOOP:  cpu time    3.1890: real time    3.1891

 eigenvalue-minimisations  :  5208
 total energy-change (2. order) :-0.6657947E-01  (-0.2570075E-01)
 number of electron     160.0000140 magnetization 
 augmentation part       50.1208436 magnetization 

 Broyden mixing:
  rms(total) = 0.37033E+00    rms(broyden)= 0.37032E+00
  rms(prec ) = 0.51453E+00
  weight for this iteration     100.00

 eigenvalues of (default mixing * dielectric matrix)
  average eigenvalue GAMMA=   0.7345
  1.9747  1.2768  1.2768  0.5258  0.5258  0.1594  0.3128  0.3128  0.2453

 Free energy of the ion-electron system (eV)
  ---------------------------------------------------
  alpha Z        PSCENC =       350.82459594
  Ewald energy   TEWEN  =     72997.71936392
  -Hartree energ DENC   =    -85047.43842509
  -exchange      EXHF   =         0.00000000
  -V(xc)+E(xc)   XCENC  =        41.04077754
  PAW double counting   =     14378.06413843   -13964.52454826
  entropy T*S    EENTRO =        -0.03723957
  eigenvalues    EBANDS =      -541.52558819
  atomic energy  EATOM  =     11693.69420960
  Solvation  Ediel_sol  =         0.00000000
  ---------------------------------------------------
  free energy    TOTEN  =       -92.18271569 eV

  energy without entropy =      -92.14547612  energy(sigma->0) =      -92.17030250


--------------------------------------------------------------------------------------------------------




--------------------------------------- Iteration      1(  15)  ---------------------------------------


    POTLOK:  cpu time    0.0184: real time    0.0185
    SETDIJ:  cpu time    0.0024: real time    0.0024
     EDDAV:  cpu time    2.9150: real time    2.9151
       DOS:  cpu time    0.0023: real time    0.0023
    CHARGE:  cpu time    0.1412: real time    0.1412
    MIXING:  cpu time    0.0014: real time    0.0014
    --------------------------------------------
      LOOP:  cpu time    3.0808: real time    3.0809

 eigenvalue-minimisations  :  4984
 total energy-change (2. order) : 0.9293192E-01  (-0.1123253E-01)
 number of electron     160.0000138 magnetization 
 augmentation part       50.1050048 magnetization 

 Broyden mixing:
  rms(total) = 0.18419E+00    rms(broyden)= 0.18418E+00
  rms(prec ) = 0.22081E+00
  weight for this iteration     100.00

 eigenvalues of (default mixing * dielectric matrix)
  average eigenvalue GAMMA=   0.8494
  2.2545  1.6732  1.6732  0.6218  0.6218  0.6125  0.1594  0.2459  0.3160  0.3160

 Free energy of the ion-electron system (eV)
  ---------------------------------------------------
  alpha Z        PSCENC =       350.82459594
  Ewald energy   TEWEN  =     72997.71936392
  -Hartree energ DENC   =    -85049.61870211
  -exchange      EXHF   =         0.00000000
  -V(xc)+E(xc)   XCENC  =        41.09553071
  PAW double counting   =     14343.66382207   -13929.87800258
  entropy T*S    EENTRO =        -0.03381699
  eigenvalues    EBANDS =      -539.55678431
  atomic energy  EATOM  =     11693.69420960
  Solvation  Ediel_sol  =         0.00000000
  ---------------------------------------------------
  free energy    TOTEN  =       -92.08978377 eV

  energy without entropy =      -92.05596677  energy(sigma->0) =      -92.07851144


--------------------------------------------------------------------------------------------------------




--------------------------------------- Iteration      1(  16)  ---------------------------------------


    POTLOK:  cpu time    0.0186: real time    0.0186
    SETDIJ:  cpu time    0.0024: real time    0.0024
     EDDAV:  cpu time    3.0325: real time    3.0326
       DOS:  cpu time    0.0023: real time    0.0023
    CHARGE:  cpu time    0.1412: real time    0.1412
    MIXING:  cpu time    0.0016: real time    0.0016
    --------------------------------------------
      LOOP:  cpu time    3.1985: real time    3.1986

 eigenvalue-minimisations  :  5224
 total energy-change (2. order) : 0.2254176E-02  (-0.1099776E-01)
 number of electron     160.0000138 magnetization 
 augmentation part       50.0731003 magnetization 

 Broyden mixing:
  rms(total) = 0.12140E+00    rms(broyden)= 0.12138E+00
  rms(prec ) = 0.13725E+00
  weight for this iteration     100.00

 eigenvalues of (default mixing * dielectric matrix)
  average eigenvalue GAMMA=   0.8013
  2.0501  1.6882  1.6882  0.7388  0.6227  0.6227  0.4163  0.1594  0.2443  0.2917
  0.2917

 Free energy of the ion-electron system (eV)
  ---------------------------------------------------
  alpha Z        PSCENC =       350.82459594
  Ewald energy   TEWEN  =     72997.71936392
  -Hartree energ DENC   =    -85056.23618578
  -exchange      EXHF   =         0.00000000
  -V(xc)+E(xc)   XCENC  =        41.16045428
  PAW double counting   =     14290.48485425   -13876.58815741
  entropy T*S    EENTRO =        -0.04070506
  eigenvalues    EBANDS =      -533.10595933
  atomic energy  EATOM  =     11693.69420960
  Solvation  Ediel_sol  =         0.00000000
  ---------------------------------------------------
  free energy    TOTEN  =       -92.08752959 eV

  energy without entropy =      -92.04682454  energy(sigma->0) =      -92.07396124


--------------------------------------------------------------------------------------------------------




--------------------------------------- Iteration      1(  17)  ---------------------------------------


    POTLOK:  cpu time    0.0189: real time    0.0189
    SETDIJ:  cpu time    0.0024: real time    0.0024
     EDDAV:  cpu time    3.0893: real time    3.0894
       DOS:  cpu time    0.0023: real time    0.0023
    CHARGE:  cpu time    0.1408: real time    0.1408
    MIXING:  cpu time    0.0016: real time    0.0016
    --------------------------------------------
      LOOP:  cpu time    3.2553: real time    3.2554

 eigenvalue-minimisations  :  5344
 total energy-change (2. order) : 0.1048661E-01  (-0.4103650E-02)
 number of electron     160.0000138 magnetization 
 augmentation part       50.0647402 magnetization 

 Broyden mixing:
  rms(total) = 0.76558E-01    rms(broyden)= 0.76551E-01
  rms(prec ) = 0.97344E-01
  weight for this iteration     100.00

 eigenvalues of (default mixing * dielectric matrix)
  average eigenvalue GAMMA=   0.7969
  1.9894  1.9894  1.4939  0.7745  0.7745  0.6098  0.6098  0.1594  0.3163  0.3163
  0.2447  0.2844

 Free energy of the ion-electron system (eV)
  ---------------------------------------------------
  alpha Z        PSCENC =       350.82459594
  Ewald energy   TEWEN  =     72997.71936392
  -Hartree energ DENC   =    -85057.49706718
  -exchange      EXHF   =         0.00000000
  -V(xc)+E(xc)   XCENC  =        41.16344839
  PAW double counting   =     14291.27295819   -13877.33455187
  entropy T*S    EENTRO =        -0.03547539
  eigenvalues    EBANDS =      -531.88452457
  atomic energy  EATOM  =     11693.69420960
  Solvation  Ediel_sol  =         0.00000000
  ---------------------------------------------------
  free energy    TOTEN  =       -92.07704298 eV

  energy without entropy =      -92.04156759  energy(sigma->0) =      -92.06521785


--------------------------------------------------------------------------------------------------------




--------------------------------------- Iteration      1(  18)  ---------------------------------------


    POTLOK:  cpu time    0.0185: real time    0.0186
    SETDIJ:  cpu time    0.0024: real time    0.0024
     EDDAV:  cpu time    2.6826: real time    2.6827
       DOS:  cpu time    0.0023: real time    0.0023
    CHARGE:  cpu time    0.1421: real time    0.1421
    MIXING:  cpu time    0.0019: real time    0.0019
    --------------------------------------------
      LOOP:  cpu time    2.8499: real time    2.8500

 eigenvalue-minimisations  :  4464
 total energy-change (2. order) : 0.1409680E-02  (-0.3580724E-03)
 number of electron     160.0000138 magnetization 
 augmentation part       50.0589601 magnetization 

 Broyden mixing:
  rms(total) = 0.67410E-01    rms(broyden)= 0.67409E-01
  rms(prec ) = 0.95354E-01
  weight for this iteration     100.00

 eigenvalues of (default mixing * dielectric matrix)
  average eigenvalue GAMMA=   0.8482
  2.1353  1.8440  1.8440  1.0223  1.0223  0.6736  0.5747  0.5747  0.1594  0.3459
  0.3068  0.2440  0.2800

 Free energy of the ion-electron system (eV)
  ---------------------------------------------------
  alpha Z        PSCENC =       350.82459594
  Ewald energy   TEWEN  =     72997.71936392
  -Hartree energ DENC   =    -85058.52524825
  -exchange      EXHF   =         0.00000000
  -V(xc)+E(xc)   XCENC  =        41.17932337
  PAW double counting   =     14292.11127955   -13878.08378931
  entropy T*S    EENTRO =        -0.03585218
  eigenvalues    EBANDS =      -530.95951593
  atomic energy  EATOM  =     11693.69420960
  Solvation  Ediel_sol  =         0.00000000
  ---------------------------------------------------
  free energy    TOTEN  =       -92.07563330 eV

  energy without entropy =      -92.03978112  energy(sigma->0) =      -92.06368257


--------------------------------------------------------------------------------------------------------




--------------------------------------- Iteration      1(  19)  ---------------------------------------


    POTLOK:  cpu time    0.0195: real time    0.0196
    SETDIJ:  cpu time    0.0025: real time    0.0024
     EDDAV:  cpu time    2.8665: real time    2.8665
       DOS:  cpu time    0.0023: real time    0.0023
    CHARGE:  cpu time    0.1416: real time    0.1416
    MIXING:  cpu time    0.0019: real time    0.0019
    --------------------------------------------
      LOOP:  cpu time    3.0342: real time    3.0344

 eigenvalue-minimisations  :  4856
 total energy-change (2. order) : 0.3157296E-02  (-0.2597942E-03)
 number of electron     160.0000138 magnetization 
 augmentation part       50.0570860 magnetization 

 Broyden mixing:
  rms(total) = 0.39391E-01    rms(broyden)= 0.39389E-01
  rms(prec ) = 0.53540E-01
  weight for this iteration     100.00

 eigenvalues of (default mixing * dielectric matrix)
  average eigenvalue GAMMA=   0.8532
  2.2089  2.0132  2.0132  1.0343  1.0343  0.5905  0.5905  0.6217  0.5070  0.1594
  0.3373  0.2440  0.3107  0.2796

 Free energy of the ion-electron system (eV)
  ---------------------------------------------------
  alpha Z        PSCENC =       350.82459594
  Ewald energy   TEWEN  =     72997.71936392
  -Hartree energ DENC   =    -85059.94770315
  -exchange      EXHF   =         0.00000000
  -V(xc)+E(xc)   XCENC  =        41.18902500
  PAW double counting   =     14298.40775734   -13884.35958939
  entropy T*S    EENTRO =        -0.03519884
  eigenvalues    EBANDS =      -529.56493641
  atomic energy  EATOM  =     11693.69420960
  Solvation  Ediel_sol  =         0.00000000
  ---------------------------------------------------
  free energy    TOTEN  =       -92.07247600 eV

  energy without entropy =      -92.03727716  energy(sigma->0) =      -92.06074306


--------------------------------------------------------------------------------------------------------




--------------------------------------- Iteration      1(  20)  ---------------------------------------


    POTLOK:  cpu time    0.0201: real time    0.0249
    SETDIJ:  cpu time    0.0024: real time    0.0024
     EDDAV:  cpu time    2.9377: real time    2.9378
       DOS:  cpu time    0.0023: real time    0.0023
    CHARGE:  cpu time    0.1414: real time    0.1414
    MIXING:  cpu time    0.0020: real time    0.0020
    --------------------------------------------
      LOOP:  cpu time    3.1060: real time    3.1108

 eigenvalue-minimisations  :  5016
 total energy-change (2. order) : 0.9067324E-03  (-0.1200176E-03)
 number of electron     160.0000138 magnetization 
 augmentation part       50.0546691 magnetization 

 Broyden mixing:
  rms(total) = 0.25508E-01    rms(broyden)= 0.25507E-01
  rms(prec ) = 0.33562E-01
  weight for this iteration     100.00

 eigenvalues of (default mixing * dielectric matrix)
  average eigenvalue GAMMA=   0.8637
  2.1827  2.1036  2.1036  1.0684  1.0684  0.7735  0.7735  0.6026  0.6026  0.1594
  0.2440  0.2812  0.3049  0.3433  0.3433

 Free energy of the ion-electron system (eV)
  ---------------------------------------------------
  alpha Z        PSCENC =       350.82459594
  Ewald energy   TEWEN  =     72997.71936392
  -Hartree energ DENC   =    -85060.94240546
  -exchange      EXHF   =         0.00000000
  -V(xc)+E(xc)   XCENC  =        41.19658331
  PAW double counting   =     14301.45064074   -13887.37646635
  entropy T*S    EENTRO =        -0.03493780
  eigenvalues    EBANDS =      -528.60315317
  atomic energy  EATOM  =     11693.69420960
  Solvation  Ediel_sol  =         0.00000000
  ---------------------------------------------------
  free energy    TOTEN  =       -92.07156927 eV

  energy without entropy =      -92.03663147  energy(sigma->0) =      -92.05992334


--------------------------------------------------------------------------------------------------------




--------------------------------------- Iteration      1(  21)  ---------------------------------------


    POTLOK:  cpu time    0.0192: real time    0.0192
    SETDIJ:  cpu time    0.0024: real time    0.0024
     EDDAV:  cpu time    2.6455: real time    2.6456
       DOS:  cpu time    0.0023: real time    0.0023
    CHARGE:  cpu time    0.1421: real time    0.1421
    MIXING:  cpu time    0.0020: real time    0.0020
    --------------------------------------------
      LOOP:  cpu time    2.8134: real time    2.8135

 eigenvalue-minimisations  :  4392
 total energy-change (2. order) : 0.3444891E-03  (-0.3626026E-04)
 number of electron     160.0000138 magnetization 
 augmentation part       50.0517093 magnetization 

 Broyden mixing:
  rms(total) = 0.15169E-01    rms(broyden)= 0.15169E-01
  rms(prec ) = 0.18592E-01
  weight for this iteration     100.00

 eigenvalues of (default mixing * dielectric matrix)
  average eigenvalue GAMMA=   0.9301
  2.3149  2.3149  2.1942  1.3416  1.3416  0.8653  0.8653  0.7682  0.5904  0.5904
  0.1594  0.2440  0.3656  0.3371  0.3095  0.2798

 Free energy of the ion-electron system (eV)
  ---------------------------------------------------
  alpha Z        PSCENC =       350.82459594
  Ewald energy   TEWEN  =     72997.71936392
  -Hartree energ DENC   =    -85062.04918060
  -exchange      EXHF   =         0.00000000
  -V(xc)+E(xc)   XCENC  =        41.20416712
  PAW double counting   =     14302.97452858   -13888.87016085
  entropy T*S    EENTRO =        -0.03472747
  eigenvalues    EBANDS =      -527.53402103
  atomic energy  EATOM  =     11693.69420960
  Solvation  Ediel_sol  =         0.00000000
  ---------------------------------------------------
  free energy    TOTEN  =       -92.07122478 eV

  energy without entropy =      -92.03649731  energy(sigma->0) =      -92.05964896


--------------------------------------------------------------------------------------------------------




--------------------------------------- Iteration      1(  22)  ---------------------------------------


    POTLOK:  cpu time    0.0194: real time    0.0194
    SETDIJ:  cpu time    0.0024: real time    0.0024
     EDDAV:  cpu time    2.9191: real time    2.9191
       DOS:  cpu time    0.0023: real time    0.0023
    CHARGE:  cpu time    0.1410: real time    0.1410
    MIXING:  cpu time    0.0021: real time    0.0021
    --------------------------------------------
      LOOP:  cpu time    3.0862: real time    3.0863

 eigenvalue-minimisations  :  4976
 total energy-change (2. order) : 0.1286211E-03  (-0.3786201E-04)
 number of electron     160.0000138 magnetization 
 augmentation part       50.0493054 magnetization 

 Broyden mixing:
  rms(total) = 0.53167E-02    rms(broyden)= 0.53152E-02
  rms(prec ) = 0.58360E-02
  weight for this iteration     100.00

 eigenvalues of (default mixing * dielectric matrix)
  average eigenvalue GAMMA=   0.9830
  2.5320  2.5320  2.3824  1.5305  1.5305  0.8733  0.8733  0.7857  0.7857  0.5931
  0.5931  0.1594  0.2440  0.3701  0.3373  0.3094  0.2799

 Free energy of the ion-electron system (eV)
  ---------------------------------------------------
  alpha Z        PSCENC =       350.82459594
  Ewald energy   TEWEN  =     72997.71936392
  -Hartree energ DENC   =    -85063.25566467
  -exchange      EXHF   =         0.00000000
  -V(xc)+E(xc)   XCENC  =        41.21224720
  PAW double counting   =     14304.57850291   -13890.45040179
[...]
     80      -0.3207      2.05703
     81      -0.2863      2.06898
     82      -0.2576      2.06973
     83      -0.2269      2.05254
     84      -0.2136      2.03690
     85      -0.1278      1.75791
     86      -0.1130      1.67327
     87       0.5866     -0.00014
     88       0.8222     -0.00000
     89       0.8824     -0.00000
     90       2.5850     -0.00000
     91       2.9008     -0.00000
     92       2.9396     -0.00000
     93       4.7294     -0.00000
     94       4.8023     -0.00000
     95       5.1238     -0.00000
     96       5.2317     -0.00000

 k-point    19 :       0.4375    0.4375    0.0000
  band No.  band energies     occupation 
      1      -8.0361      2.00000
      2      -7.3643      2.00000
      3      -6.9188      2.00000
      4      -6.5216      2.00000
      5      -6.0209      2.00000
      6      -5.8926      2.00000
      7      -5.8657      2.00000
      8      -5.8581      2.00000
      9      -5.7856      2.00000
     10      -5.7752      2.00000
     11      -5.7589      2.00000
     12      -5.5250      2.00000
     13      -5.4117      2.00000
     14      -5.3772      2.00000
     15      -5.2743      2.00000
     16      -5.1311      2.00000
     17      -5.1247      2.00000
     18      -4.9135      2.00000
     19      -4.8603      2.00000
     20      -4.7718      2.00000
     21      -4.6295      2.00000
     22      -4.6130      2.00000
     23      -4.5773      2.00000
     24      -4.4746      2.00000
     25      -4.3945      2.00000
     26      -4.3397      2.00000
     27      -4.2605      2.00000
     28      -4.0978      2.00000
     29      -4.0968      2.00000
     30      -3.9776      2.00000
     31      -3.9078      2.00000
     32      -3.8004      2.00000
     33      -3.7563      2.00000
     34      -3.7382      2.00000
     35      -3.6274      2.00000
     36      -3.5112      2.00000
     37      -3.4029      2.00000
     38      -3.3054      2.00000
     39      -3.2429      2.00000
     40      -3.1295      2.00000
     41      -3.0836      2.00000
     42      -3.0218      2.00000
     43      -2.9850      2.00000
     44      -2.9440      2.00000
     45      -2.9100      2.00000
     46      -2.8999      2.00000
     47      -2.8605      2.00000
     48      -2.8027      2.00000
     49      -2.7898      2.00000
     50      -2.7122      2.00000
     51      -2.5841      2.00000
     52      -2.5410      2.00000
     53      -2.4759      2.00000
     54      -2.2854      2.00000
     55      -2.2600      2.00000
     56      -2.2311      2.00000
     57      -2.1486      2.00000
     58      -2.0325      2.00000
     59      -2.0018      2.00000
     60      -1.8485      2.00000
     61      -1.7883      2.00000
     62      -1.6514      2.00000
     63      -1.6293      2.00000
     64      -1.5360      2.00000
     65      -1.4782      2.00000
     66      -1.4338      2.00000
     67      -1.3435      2.00000
     68      -1.3370      2.00000
     69      -1.2613      2.00000
     70      -1.2271      2.00000
     71      -1.1106      2.00000
     72      -1.0569      2.00000
     73      -1.0395      2.00000
     74      -0.8561      2.00000
     75      -0.6196      2.00021
     76      -0.4900      2.00485
     77      -0.4276      2.01521
     78      -0.3507      2.04332
     79      -0.0536      1.24271
     80       0.0024      0.77407
     81       0.0169      0.65737
     82       0.0303      0.55464
     83       0.1525     -0.01748
     84       0.2977     -0.04508
     85       0.3091     -0.03987
     86       0.4360     -0.00534
     87       1.9548     -0.00000
     88       1.9963     -0.00000
     89       2.0690     -0.00000
     90       2.5327     -0.00000
     91       2.5702     -0.00000
     92       2.6083     -0.00000
     93       3.6633     -0.00000
     94       3.6704     -0.00000
     95       4.0760     -0.00000
     96       5.1639     -0.00000

 k-point    20 :      -0.4375    0.4375    0.0000
  band No.  band energies     occupation 
      1      -7.6029      2.00000
      2      -7.5831      2.00000
      3      -6.6211      2.00000
      4      -6.5669      2.00000
      5      -6.1215      2.00000
      6      -5.8614      2.00000
      7      -5.8268      2.00000
      8      -5.7542      2.00000
      9      -5.6511      2.00000
     10      -5.5743      2.00000
     11      -5.5299      2.00000
     12      -5.4396      2.00000
     13      -5.4172      2.00000
     14      -5.2472      2.00000
     15      -5.0871      2.00000
     16      -5.0046      2.00000
     17      -4.9982      2.00000
     18      -4.9546      2.00000
     19      -4.8596      2.00000
     20      -4.7977      2.00000
     21      -4.6144      2.00000
     22      -4.5961      2.00000
     23      -4.5704      2.00000
     24      -4.5233      2.00000
     25      -4.4723      2.00000
     26      -4.3781      2.00000
     27      -4.3629      2.00000
     28      -4.3011      2.00000
     29      -4.1040      2.00000
     30      -3.9688      2.00000
     31      -3.9334      2.00000
     32      -3.8723      2.00000
     33      -3.8502      2.00000
     34      -3.7191      2.00000
     35      -3.7082      2.00000
     36      -3.5742      2.00000
     37      -3.5128      2.00000
     38      -3.4511      2.00000
     39      -3.3710      2.00000
     40      -3.3652      2.00000
     41      -3.2963      2.00000
     42      -3.2046      2.00000
     43      -3.0771      2.00000
     44      -3.0161      2.00000
     45      -2.9737      2.00000
     46      -2.9582      2.00000
     47      -2.8996      2.00000
     48      -2.8723      2.00000
     49      -2.8541      2.00000
     50      -2.7289      2.00000
     51      -2.6556      2.00000
     52      -2.5371      2.00000
     53      -2.4070      2.00000
     54      -2.2461      2.00000
     55      -2.2257      2.00000
     56      -2.1870      2.00000
     57      -2.1157      2.00000
     58      -2.0513      2.00000
     59      -1.9437      2.00000
     60      -1.8376      2.00000
     61      -1.7474      2.00000
     62      -1.7074      2.00000
     63      -1.6568      2.00000
     64      -1.5298      2.00000
     65      -1.4611      2.00000
     66      -1.4018      2.00000
     67      -1.3766      2.00000
     68      -1.3321      2.00000
     69      -1.1990      2.00000
     70      -1.1266      2.00000
     71      -1.0993      2.00000
     72      -1.0149      2.00000
     73      -0.9519      2.00000
     74      -0.8535      2.00000
     75      -0.6474      2.00010
     76      -0.5159      2.00281
     77      -0.4760      2.00640
     78      -0.3756      2.03242
     79      -0.1806      1.96956
     80      -0.1121      1.66777
     81      -0.0696      1.37016
     82       0.0022      0.77592
     83       0.1586     -0.02804
     84       0.1760     -0.05080
     85       0.3409     -0.02681
     86       0.4023     -0.01011
     87       1.0114     -0.00000
     88       1.2697     -0.00000
     89       2.2567     -0.00000
     90       2.3472     -0.00000
     91       2.3897     -0.00000
     92       3.1626     -0.00000
     93       3.9652     -0.00000
     94       4.2411     -0.00000
     95       4.7453     -0.00000
     96       4.7925     -0.00000


--------------------------------------------------------------------------------------------------------


 soft charge-density along one line, spin component           1
         0         1         2         3         4         5         6         7         8         9
 total charge-density along one line
 
 pseudopotential strength for first ion, spin component:           1
 -7.755   0.000   0.000  -0.006   0.000  -7.907   0.000   0.000
  0.000  -7.670  -0.000   0.000  -0.006   0.000  -7.825  -0.000
  0.000  -0.000  -7.661  -0.000   0.000   0.000  -0.000  -7.816
 -0.006   0.000  -0.000  -7.670   0.000  -0.005   0.000  -0.000
  0.000  -0.006   0.000   0.000  -7.755   0.000  -0.005   0.000
 -7.907   0.000   0.000  -0.005   0.000  -8.044   0.000   0.000
  0.000  -7.825  -0.000   0.000  -0.005   0.000  -7.963  -0.000
  0.000  -0.000  -7.816  -0.000   0.000   0.000  -0.000  -7.955
 -0.005   0.000  -0.000  -7.825   0.000  -0.005   0.000  -0.000
  0.000  -0.005   0.000   0.000  -7.907   0.000  -0.005   0.000
  0.000  -0.000  -0.026  -0.000   0.000   0.000  -0.000  -0.026
  0.000  -0.000  -0.038  -0.000   0.000   0.000  -0.000  -0.038
  0.000   0.001  -0.000   0.000  -0.000   0.000   0.000  -0.000
  0.000   0.000   0.003   0.000   0.000   0.000   0.000   0.002
 -0.000   0.000  -0.000   0.001   0.000  -0.000   0.000  -0.000
  0.000  -0.001  -0.000   0.000  -0.001   0.000  -0.001  -0.000
  0.000   0.000   0.001   0.000   0.000   0.000   0.000   0.001
 -0.001   0.000  -0.000  -0.001   0.000  -0.001   0.000  -0.000
 total augmentation occupancy for first ion, spin component:           1
  4.770   0.000   0.000  -0.031   0.000  -2.964   0.000   0.000  -0.052   0.000   0.000   0.000   0.000   0.000   0.052   0.000
  0.000   4.914   0.000   0.000  -0.031   0.000  -2.608   0.000   0.000  -0.050  -0.000  -0.000   0.219  -0.000   0.000  -0.012
  0.000   0.000   5.461   0.000  -0.000   0.000   0.000  -3.271   0.000   0.000   0.884  -0.078  -0.000   0.371   0.000   0.000
 -0.031   0.000   0.000   4.914   0.000  -0.050   0.000   0.000  -2.608   0.000   0.000   0.000   0.000   0.000   0.219   0.000
  0.000  -0.031  -0.000   0.000   4.770   0.000  -0.052   0.000   0.000  -2.964   0.000   0.000   0.052  -0.000   0.000  -0.002
 -2.964   0.000   0.000  -0.050   0.000   3.013   0.000   0.000   0.113   0.000   0.000   0.000   0.000   0.000  -0.047   0.000
  0.000  -2.608   0.000   0.000  -0.052   0.000   2.268  -0.000   0.000   0.113   0.000  -0.000  -0.203   0.000   0.000   0.009
  0.000   0.000  -3.271   0.000   0.000   0.000  -0.000   3.024   0.000  -0.000  -0.807   0.087   0.000  -0.370   0.000  -0.000
 -0.052   0.000   0.000  -2.608   0.000   0.113   0.000   0.000   2.268   0.000   0.000   0.000   0.000   0.000  -0.203   0.000
  0.000  -0.050   0.000   0.000  -2.964   0.000   0.113  -0.000   0.000   3.013   0.000   0.000  -0.047   0.000   0.000   0.001
  0.000   0.000   0.884   0.000   0.000   0.000   0.000  -0.807   0.000   0.000   2.539  -0.573  -0.000  -0.164   0.000   0.000
  0.000  -0.000  -0.078   0.000   0.000   0.000   0.000   0.087   0.000   0.000  -0.573   0.170  -0.000   0.076   0.000  -0.000
  0.000   0.219  -0.000   0.000   0.052   0.000  -0.203   0.000   0.000  -0.047  -0.000  -0.000   0.237   0.000   0.000  -0.007
  0.000  -0.000   0.371   0.000  -0.000   0.000   0.000  -0.370   0.000   0.000  -0.164   0.076  -0.000   0.131   0.000   0.000
  0.052   0.000   0.000   0.219   0.000  -0.047   0.000   0.000  -0.203   0.000   0.000   0.000   0.000   0.000   0.237   0.000
  0.000  -0.012   0.000   0.000  -0.002   0.000   0.009  -0.000   0.000   0.001   0.000  -0.000  -0.007   0.000   0.000   0.000
  0.000   0.000  -0.009   0.000   0.000   0.000   0.000   0.011   0.000  -0.000   0.008  -0.003   0.000  -0.004   0.000   0.000
 -0.002   0.000   0.000  -0.012   0.000   0.001   0.000   0.000   0.009   0.000   0.000   0.000   0.000   0.000  -0.007   0.000


------------------------ aborting loop because EDIFF is reached ----------------------------------------



 DIPCOR: dipole corrections for dipol
 direction  3 min pos   250,
 dipolmoment           0.000000      0.000000     -0.013915 electrons x Angstroem
 Tr[quadrupol]      -946.345236

 energy correction for charged system         0.000000 eV
 dipol+quadrupol energy correction            0.000025 eV
 added-field ion interaction          0.000000 eV  (added to PSCEN)

 
  *************** adding dipol energy to TOTEN NOW **************** 
    CHARGE:  cpu time    0.1410: real time    0.1410
    FORLOC:  cpu time    0.0043: real time    0.0043
    FORNL :  cpu time    0.5522: real time    0.5522
    STRESS:  cpu time    1.6633: real time    1.6634
    FORCOR:  cpu time    0.0235: real time    0.0235
    FORHAR:  cpu time    0.0083: real time    0.0084
    MIXING:  cpu time    0.0027: real time    0.0027
    OFIELD:  cpu time    0.0000: real time    0.0000

  FORCE on cell =-STRESS in cart. coord.  units (eV):
  Direction    XX          YY          ZZ          XY          YZ          ZX
  --------------------------------------------------------------------------------------
  Alpha Z   350.82460   350.82460   350.82460
  Ewald   81914.59351 81914.59351-90831.48365    -0.00000    -0.00000    -0.00000
  Hartree 84372.04758 84372.04758-83678.34615    -0.00000     0.00000     0.00000
  E(xc)    -710.44930  -710.44931  -715.14541     0.00001    -0.00000    -0.00000
  Local  ************************171614.70647     0.00102    -0.00004    -0.00006
  n-local   100.72931    26.94038    47.01744   -21.35820    -4.54434     2.50767
  augment   834.13972   834.14060   861.39324    -0.00076     0.00001     0.00001
  Kinetic  2295.72669  2272.06368  2353.85170    -6.32499    -5.52302     3.77780
  Fock        0.00000     0.00000     0.00000     0.00000     0.00000     0.00000
  -------------------------------------------------------------------------------------
  Total      -7.88282    -7.88282     2.81824     0.00000     0.00000     0.00000
  in kB     -17.71301   -17.71301     6.33270     0.00000     0.00000     0.00000
  external pressure =       -9.70 kB  Pullay stress =        0.00 kB


 VOLUME and BASIS-vectors are now :
 -----------------------------------------------------------------------------
  energy-cutoff  :      350.00
  volume of cell :      713.02
      direct lattice vectors                 reciprocal lattice vectors
     5.543717165  0.000000000  0.000000000     0.180384383 -0.104144972  0.000000000
     2.771858582  4.800999896  0.000000000     0.000000000  0.208289944  0.000000000
     0.000000000  0.000000000 26.789639166     0.000000000  0.000000000  0.037327864

  length of vectors
     5.543717165  5.543717165 26.789639166     0.208289944  0.208289944  0.037327864


 FORCES acting on ions
    electron-ion (+dipol)            ewald-force                    non-local-force                 convergence-correction
 -----------------------------------------------------------------------------------------------
   -.112E-05 -.645E-06 -.291E+04   0.101E-11 0.617E-12 0.291E+04   0.325E-18 -.184E-17 0.319E+00   0.395E-09 0.228E-09 -.152E-01
   -.286E-06 -.165E-06 0.242E+04   -.917E-12 -.603E-12 -.242E+04   0.759E-18 0.000E+00 -.246E+00   -.163E-09 -.942E-10 -.123E-01
   0.122E-05 -.531E-02 0.269E+04   -.105E-11 -.649E-12 -.269E+04   0.000E+00 0.711E-01 -.100E+01   -.701E-09 0.130E-03 -.134E-01
   0.460E-02 0.266E-02 0.269E+04   -.109E-11 -.651E-12 -.269E+04   -.616E-01 -.356E-01 -.100E+01   -.113E-03 -.652E-04 -.134E-01
   -.460E-02 0.266E-02 0.269E+04   -.106E-11 -.658E-12 -.269E+04   0.616E-01 -.356E-01 -.100E+01   0.113E-03 -.652E-04 -.134E-01
   -.477E+01 0.276E+01 0.937E+03   0.498E+01 -.288E+01 -.937E+03   -.405E-01 0.234E-01 0.126E+00   0.144E-02 -.829E-03 -.591E-01
   0.477E+01 0.276E+01 0.937E+03   -.498E+01 -.288E+01 -.937E+03   0.405E-01 0.234E-01 0.126E+00   -.144E-02 -.829E-03 -.591E-01
   0.646E-06 0.373E-06 0.931E+03   0.279E-11 0.175E-11 -.931E+03   -.400E-17 0.138E-17 0.233E+00   0.426E-09 0.246E-09 -.575E-01
   0.456E-06 -.551E+01 0.937E+03   0.329E-11 0.575E+01 -.937E+03   0.434E-17 -.467E-01 0.126E+00   0.106E-08 0.166E-02 -.591E-01
   -.104E-05 -.601E-06 -.853E+03   -.301E-11 -.186E-11 0.852E+03   0.000E+00 0.000E+00 0.423E+00   0.621E-10 0.359E-10 -.606E-01
   -.979E-06 -.502E+01 -.847E+03   -.259E-11 0.516E+01 0.847E+03   -.651E-18 -.108E-02 0.404E+00   -.255E-09 -.124E-02 -.593E-01
   -.435E+01 0.251E+01 -.847E+03   0.447E+01 -.258E+01 0.847E+03   -.939E-03 0.542E-03 0.404E+00   -.107E-02 0.618E-03 -.593E-01
   0.435E+01 0.251E+01 -.847E+03   -.447E+01 -.258E+01 0.847E+03   0.939E-03 0.542E-03 0.404E+00   0.107E-02 0.618E-03 -.593E-01
   -.124E-05 -.530E-01 -.264E+04   0.883E-12 0.550E-12 0.264E+04   0.260E-17 0.772E-01 0.959E+00   0.231E-09 -.160E-03 -.141E-01
   0.459E-01 0.265E-01 -.264E+04   0.857E-12 0.541E-12 0.264E+04   -.668E-01 -.386E-01 0.959E+00   0.139E-03 0.802E-04 -.141E-01
   -.459E-01 0.265E-01 -.264E+04   0.886E-12 0.529E-12 0.264E+04   0.668E-01 -.386E-01 0.959E+00   -.139E-03 0.802E-04 -.141E-01
 -----------------------------------------------------------------------------------------------
   -.226E-05 -.130E-05 -.160E+01   -.219E-13 0.356E-14 0.909E-12   0.278E-16 0.278E-16 0.219E+01   0.211E-08 0.122E-08 -.583E+00
 
 
 POSITION                                       TOTAL-FORCE (eV/Angst)
 -----------------------------------------------------------------------------------
      2.77186      0.00000     16.90767        -0.000000     -0.000000      1.056003
      2.77186      0.00000     10.00000         0.000000     -0.000000      0.764408
      0.00000      0.00000     10.00000         0.000000      0.065934     -0.572585
      1.38593      2.40050     10.00000        -0.057101     -0.032967     -0.572585
      4.15779      2.40050     10.00000         0.057101     -0.032967     -0.572585
      1.38593      0.80017     12.26321         0.170541     -0.098462      0.163110
      4.15779      0.80017     12.26321        -0.170541     -0.098462      0.163110
      2.77186      3.20067     12.26321        -0.000000     -0.000000      0.312873
      5.54372      3.20067     12.26321        -0.000000      0.196924      0.163110
      5.54372      1.60033     14.56863        -0.000000     -0.000000     -0.121254
      2.77186      1.60033     14.56863         0.000000      0.141988     -0.125103
      6.92965      4.00083     14.56863         0.122965     -0.070994     -0.125103
      4.15779      4.00083     14.56863        -0.122965     -0.070994     -0.125103
      0.00000      0.00000     16.90767        -0.000000      0.024064     -0.136098
      1.38593      2.40050     16.90767        -0.020840     -0.012032     -0.136098
      4.15779      2.40050     16.90767         0.020840     -0.012032     -0.136098
 -----------------------------------------------------------------------------------
    total drift:                               -0.000002     -0.000001      0.012786


--------------------------------------------------------------------------------------------------------



  FREE ENERGIE OF THE ION-ELECTRON SYSTEM (eV)
  ---------------------------------------------------
  free  energy   TOTEN  =       -92.07124824 eV

  energy  without entropy=      -92.03668353  energy(sigma->0) =      -92.05972667
 


--------------------------------------------------------------------------------------------------------


    POTLOK:  cpu time    0.0218: real time    0.0218


--------------------------------------------------------------------------------------------------------


     LOOP+:  cpu time   84.9491: real time   84.9928
    4ORBIT:  cpu time    0.0000: real time    0.0000

 total amount of memory used by VASP MPI-rank0    60524. kBytes
=======================================================================

   base      :      30000. kBytes
   nonlr-proj:       2110. kBytes
   fftplans  :       2592. kBytes
   grid      :       4625. kBytes
   one-center:         62. kBytes
   wavefun   :      21135. kBytes
 
  
  
 General timing and accounting informations for this job:
 ========================================================
  
                  Total CPU time used (sec):       86.666
                            User time (sec):       86.297
                          System time (sec):        0.369
                         Elapsed time (sec):       86.964
  
                   Maximum memory used (kb):       91876.
                   Average memory used (kb):           0.
  
                          Minor page faults:        43711
                          Major page faults:            0
                 Voluntary context switches:          410
