 vasp.5.4.4.18Apr17-6-g9f103f2a35 (build Apr 28 2017 10:53:45) complex          
  
 executed on             LinuxIFC date 2019.07.18  17:44:17
 running on   16 total cores
 distrk:  each k-point on   16 cores,    1 groups
 distr:  one band on NCORES_PER_BAND=   4 cores,    4 groups


--------------------------------------------------------------------------------------------------------


 INCAR:
 POTCAR:    PAW_PBE Au 04Oct2007                  
 POTCAR:    PAW_PBE C 08Apr2002                   
 POTCAR:    PAW_PBE H 15Jun2001                   
 POTCAR:    PAW_PBE Ir 06Sep2000                  
 POTCAR:    PAW_PBE Pt 04Feb2005                  
 POTCAR:    PAW_PBE Au 04Oct2007                  
   VRHFIN =Au: s1d10                                                            
   LEXCH  = PE                                                                  
   EATOM  =   926.0867 eV,   68.0654 Ry                                         
                                                                                
   TITEL  = PAW_PBE Au 04Oct2007                                                
   LULTRA =        F    use ultrasoft PP ?                                      
   IUNSCR =        1    unscreen: 0-lin 1-nonlin 2-no                           
   RPACOR =    2.330    partial core radius                                     
   POMASS =  196.966; ZVAL   =   11.000    mass and valenz                      
   RCORE  =    2.500    outmost cutoff radius                                   
   RWIGS  =    2.840; RWIGS  =    1.503    wigner-seitz radius (au A)           
   ENMAX  =  229.943; ENMIN  =  172.457 eV                                      
   ICORE  =        3    local potential                                         
   LCOR   =        T    correct aug charges                                     
   LPAW   =        T    paw PP                                                  
   EAUG   =  356.670                                                            
   DEXC   =    0.000                                                            
   RMAX   =    2.562    core radius for proj-oper                               
   RAUG   =    1.300    factor for augmentation sphere                          
   RDEP   =    2.598    radius for radial grids                                 
   RDEPT  =    2.193    core radius for aug-charge                              
                                                                                
   Atomic configuration                                                         
   16 entries                                                                   
     n  l   j            E        occ.                                          
     1  0  0.50    -80748.5001   2.0000                                         
     2  0  0.50    -14244.7466   2.0000                                         
     2  1  1.50    -12310.9591   6.0000                                         
     3  0  0.50     -3362.1768   2.0000                                         
     3  1  1.50     -2801.5463   6.0000                                         
     3  2  2.50     -2203.8206  10.0000                                         
     4  0  0.50      -729.8168   2.0000                                         
     4  1  1.50      -546.0527   6.0000                                         
     4  2  2.50      -325.7302  10.0000                                         
     4  3  3.50       -81.1472  14.0000                                         
     5  0  0.50      -108.3201   2.0000                                         
     5  1  1.50       -59.7479   6.0000                                         
     5  2  2.50        -6.8783  10.0000                                         
     6  0  0.50        -5.7602   1.0000                                         
     6  1  1.50        -6.8029   0.0000                                         
     5  3  2.50        -1.3606   0.0000                                         
   Description                                                                  
     l       E           TYP  RCUT    TYP  RCUT                                 
     2     -6.8782861     23  2.500                                             
     2     -8.2388687     23  2.500                                             
     0     -5.7601759     23  2.500                                             
     0     -0.8493231     23  2.500                                             
     1     -2.7211652     23  2.500                                             
     1     27.2116520     23  2.500                                             
     3     -1.3605826     23  2.500                                             
  local pseudopotential read in
  partial core-charges read in
  partial kinetic energy density read in
  atomic valenz-charges read in
  non local Contribution for L=           2  read in
    real space projection operators read in
  non local Contribution for L=           2  read in
    real space projection operators read in
  non local Contribution for L=           0  read in
    real space projection operators read in
  non local Contribution for L=           0  read in
    real space projection operators read in
  non local Contribution for L=           1  read in
    real space projection operators read in
  non local Contribution for L=           1  read in
    real space projection operators read in
    PAW grid and wavefunctions read in
 
   number of l-projection  operators is LMAX  =           6
   number of lm-projection operators is LMMAX =          18
 
 POTCAR:    PAW_PBE C 08Apr2002                   
   VRHFIN =C: s2p2                                                              
   LEXCH  = PE                                                                  
   EATOM  =   147.1560 eV,   10.8157 Ry                                         
                                                                                
   TITEL  = PAW_PBE C 08Apr2002                                                 
   LULTRA =        F    use ultrasoft PP ?                                      
   IUNSCR =        1    unscreen: 0-lin 1-nonlin 2-no                           
   RPACOR =    1.200    partial core radius                                     
   POMASS =   12.011; ZVAL   =    4.000    mass and valenz                      
   RCORE  =    1.500    outmost cutoff radius                                   
   RWIGS  =    1.630; RWIGS  =    0.863    wigner-seitz radius (au A)           
   ENMAX  =  400.000; ENMIN  =  300.000 eV                                      
   ICORE  =        2    local potential                                         
   LCOR   =        T    correct aug charges                                     
   LPAW   =        T    paw PP                                                  
   EAUG   =  644.873                                                            
   DEXC   =    0.000                                                            
   RMAX   =    1.529    core radius for proj-oper                               
   RAUG   =    1.300    factor for augmentation sphere                          
   RDEP   =    1.501    radius for radial grids                                 
   RDEPT  =    1.300    core radius for aug-charge                              
                                                                                
   Atomic configuration                                                         
    4 entries                                                                   
     n  l   j            E        occ.                                          
     1  0  0.50      -273.3789   2.0000                                         
     2  0  0.50       -13.7508   2.0000                                         
     2  1  0.50        -5.2854   2.0000                                         
     3  2  1.50        -5.4423   0.0000                                         
   Description                                                                  
     l       E           TYP  RCUT    TYP  RCUT                                 
     0    -13.7508458     23  1.200                                             
     0     -8.2022199     23  1.200                                             
     1     -5.2854383     23  1.500                                             
     1     34.0145650     23  1.500                                             
     2     -5.4423304      7  1.500                                             
  local pseudopotential read in
  partial core-charges read in
  partial kinetic energy density read in
  atomic valenz-charges read in
  non local Contribution for L=           0  read in
    real space projection operators read in
  non local Contribution for L=           0  read in
    real space projection operators read in
  non local Contribution for L=           1  read in
    real space projection operators read in
  non local Contribution for L=           1  read in
    real space projection operators read in
    PAW grid and wavefunctions read in
 
   number of l-projection  operators is LMAX  =           4
   number of lm-projection operators is LMMAX =           8
 
 POTCAR:    PAW_PBE H 15Jun2001                   
   VRHFIN =H: ultrasoft test                                                    
   LEXCH  = PE                                                                  
   EATOM  =    12.4884 eV,    0.9179 Ry                                         
                                                                                
   TITEL  = PAW_PBE H 15Jun2001                                                 
   LULTRA =        F    use ultrasoft PP ?                                      
   IUNSCR =        0    unscreen: 0-lin 1-nonlin 2-no                           
   RPACOR =    0.000    partial core radius                                     
   POMASS =    1.000; ZVAL   =    1.000    mass and valenz                      
   RCORE  =    1.100    outmost cutoff radius                                   
   RWIGS  =    0.700; RWIGS  =    0.370    wigner-seitz radius (au A)           
   ENMAX  =  250.000; ENMIN  =  200.000 eV                                      
   RCLOC  =    0.701    cutoff for local pot                                    
   LCOR   =        T    correct aug charges                                     
   LPAW   =        T    paw PP                                                  
   EAUG   =  400.000                                                            
   RMAX   =    1.123    core radius for proj-oper                               
   RAUG   =    1.200    factor for augmentation sphere                          
   RDEP   =    1.112    radius for radial grids                                 
   RDEPT  =    0.926    core radius for aug-charge                              
                                                                                
   Atomic configuration                                                         
    2 entries                                                                   
     n  l   j            E        occ.                                          
     1  0  0.50        -6.4927   1.0000                                         
     2  1  0.50        -3.4015   0.0000                                         
   Description                                                                  
     l       E           TYP  RCUT    TYP  RCUT                                 
     0     -6.4927494     23  1.100                                             
     0      6.8029130     23  1.100                                             
     1     -4.0817478     23  1.100                                             
  local pseudopotential read in
  atomic valenz-charges read in
  non local Contribution for L=           0  read in
    real space projection operators read in
  non local Contribution for L=           0  read in
    real space projection operators read in
  non local Contribution for L=           1  read in
    real space projection operators read in
    PAW grid and wavefunctions read in
 
   number of l-projection  operators is LMAX  =           3
   number of lm-projection operators is LMMAX =           5
 
 POTCAR:    PAW_PBE Ir 06Sep2000                  
   VRHFIN =Ir: s1d8                                                             
   LEXCH  = PE                                                                  
   EATOM  =   560.1833 eV,   41.1723 Ry                                         
                                                                                
   TITEL  = PAW_PBE Ir 06Sep2000                                                
   LULTRA =        F    use ultrasoft PP ?                                      
   IUNSCR =        1    unscreen: 0-lin 1-nonlin 2-no                           
   RPACOR =    2.250    partial core radius                                     
   POMASS =  192.220; ZVAL   =    9.000    mass and valenz                      
   RCORE  =    2.600    outmost cutoff radius                                   
   RWIGS  =    2.690; RWIGS  =    1.423    wigner-seitz radius (au A)           
   ENMAX  =  210.864; ENMIN  =  158.148 eV                                      
   RCLOC  =    1.857    cutoff for local pot                                    
   LCOR   =        T    correct aug charges                                     
   LPAW   =        T    paw PP                                                  
   EAUG   =  318.962                                                            
   DEXC   =    0.000                                                            
   RMAX   =    2.667    core radius for proj-oper                               
   RAUG   =    1.300    factor for augmentation sphere                          
   RDEP   =    2.748    radius for radial grids                                 
   RDEPT  =    2.300    core radius for aug-charge                              
                                                                                
   Atomic configuration                                                         
   16 entries                                                                   
     n  l   j            E        occ.                                          
     1  0  0.50    -76100.0449   2.0000                                         
     2  0  0.50    -13308.1683   2.0000                                         
     2  1  1.50    -11558.0021   6.0000                                         
     3  0  0.50     -3110.7274   2.0000                                         
     3  1  1.50     -2599.2109   6.0000                                         
     3  2  2.50     -2037.1515  10.0000                                         
     4  0  0.50      -661.6001   2.0000                                         
     4  1  1.50      -493.8981   6.0000                                         
     4  2  2.50      -288.1909  10.0000                                         
     4  3  3.50       -59.5718  14.0000                                         
     5  0  0.50       -95.3879   2.0000                                         
     5  1  1.50       -52.2747   6.0000                                         
     5  2  2.50        -5.4180   8.0000                                         
     6  0  0.50        -5.5479   1.0000                                         
     6  1  1.50        -6.8029   0.0000                                         
     5  3  2.50        -1.3606   0.0000                                         
   Description                                                                  
     l       E           TYP  RCUT    TYP  RCUT                                 
     2     -5.4179967     23  2.600                                             
     2     -6.7785793     23  2.600                                             
     0     -5.5478636     23  2.600                                             
     0      2.2542272     23  2.600                                             
     1     -2.7211652     23  2.600                                             
     1     20.4087390     23  2.600                                             
  local pseudopotential read in
  partial core-charges read in
  partial kinetic energy density read in
  atomic valenz-charges read in
  non local Contribution for L=           2  read in
    real space projection operators read in
  non local Contribution for L=           2  read in
    real space projection operators read in
  non local Contribution for L=           0  read in
    real space projection operators read in
  non local Contribution for L=           0  read in
    real space projection operators read in
  non local Contribution for L=           1  read in
    real space projection operators read in
  non local Contribution for L=           1  read in
    real space projection operators read in
    PAW grid and wavefunctions read in
 
   number of l-projection  operators is LMAX  =           6
   number of lm-projection operators is LMMAX =          18
 
 POTCAR:    PAW_PBE Pt 04Feb2005                  
   VRHFIN =Pt: s1d9                                                             
   LEXCH  = PE                                                                  
   EATOM  =   729.1176 eV,   53.5886 Ry                                         
                                                                                
   TITEL  = PAW_PBE Pt 04Feb2005                                                
   LULTRA =        F    use ultrasoft PP ?                                      
   IUNSCR =        1    unscreen: 0-lin 1-nonlin 2-no                           
   RPACOR =    2.330    partial core radius                                     
   POMASS =  195.080; ZVAL   =   10.000    mass and valenz                      
   RCORE  =    2.600    outmost cutoff radius                                   
   RWIGS  =    2.750; RWIGS  =    1.455    wigner-seitz radius (au A)           
   ENMAX  =  230.283; ENMIN  =  172.712 eV                                      
   ICORE  =        3    local potential                                         
   LCOR   =        T    correct aug charges                                     
   LPAW   =        T    paw PP                                                  
   EAUG   =  358.966                                                            
   DEXC   =    0.000                                                            
   RMAX   =    2.658    core radius for proj-oper                               
   RAUG   =    1.300    factor for augmentation sphere                          
   RDEP   =    2.761    radius for radial grids                                 
   RDEPT  =    2.203    core radius for aug-charge                              
                                                                                
   Atomic configuration                                                         
   16 entries                                                                   
     n  l   j            E        occ.                                          
     1  0  0.50    -78401.1885   2.0000                                         
     2  0  0.50    -13770.7750   2.0000                                         
     2  1  1.50    -11931.0468   6.0000                                         
     3  0  0.50     -3234.7234   2.0000                                         
     3  1  1.50     -2699.2216   6.0000                                         
     3  2  2.50     -2119.5714  10.0000                                         
     4  0  0.50      -695.1528   2.0000                                         
     4  1  1.50      -519.6034   6.0000                                         
     4  2  2.50      -306.6786  10.0000                                         
     4  3  3.50       -70.1041  14.0000                                         
     5  0  0.50      -101.7747   2.0000                                         
     5  1  1.50       -55.9873   6.0000                                         
     5  2  2.50        -6.1423   9.0000                                         
     6  0  0.50        -5.6573   1.0000                                         
     6  1  1.50        -6.8029   0.0000                                         
     5  3  2.50        -1.3606   0.0000                                         
   Description                                                                  
     l       E           TYP  RCUT    TYP  RCUT                                 
     2     -6.1423404     23  2.500                                             
     2     -7.5029230     23  2.500                                             
     0     -5.6573207     23  2.500                                             
     0      0.7416693     23  2.500                                             
     1     -2.7211652     23  2.600                                             
     1     20.4087390     23  2.600                                             
     3     -1.3605826     23  2.500                                             
  local pseudopotential read in
  partial core-charges read in
  partial kinetic energy density read in
  atomic valenz-charges read in
  non local Contribution for L=           2  read in
    real space projection operators read in
  non local Contribution for L=           2  read in
    real space projection operators read in
  non local Contribution for L=           0  read in
    real space projection operators read in
  non local Contribution for L=           0  read in
    real space projection operators read in
  non local Contribution for L=           1  read in
    real space projection operators read in
  non local Contribution for L=           1  read in
    real space projection operators read in
    PAW grid and wavefunctions read in
 
   number of l-projection  operators is LMAX  =           6
   number of lm-projection operators is LMMAX =          18
 
 Optimization of the real space projectors (new method)

 maximal supplied QI-value         = 15.12
 optimisation between [QCUT,QGAM] = [  9.52, 19.05] = [ 25.40,101.61] Ry 
 Optimized for a Real-space Cutoff    1.57 Angstroem

   l    n(q)    QCUT    max X(q) W(low)/X(q) W(high)/X(q)  e(spline) 
   2      8     9.524    60.898    0.38E-03    0.43E-04    0.84E-07
   2      8     9.524    58.894    0.38E-03    0.47E-04    0.88E-07
   0      9     9.524   109.617    0.60E-04    0.64E-04    0.80E-07
   0      9     9.524    75.026    0.59E-04    0.62E-04    0.78E-07
   1      8     9.524    16.344    0.99E-04    0.18E-03    0.87E-07
   1      8     9.524    10.160    0.78E-04    0.15E-03    0.74E-07
 Optimization of the real space projectors (new method)

 maximal supplied QI-value         = 25.13
 optimisation between [QCUT,QGAM] = [  9.55, 19.10] = [ 25.54,102.17] Ry 
 Optimized for a Real-space Cutoff    1.39 Angstroem

   l    n(q)    QCUT    max X(q) W(low)/X(q) W(high)/X(q)  e(spline) 
   0      8     9.551   115.676    0.39E-03    0.54E-03    0.29E-06
   0      8     9.551    87.132    0.39E-03    0.54E-03    0.28E-06
   1      7     9.551     4.429    0.35E-03    0.51E-04    0.29E-06
   1      7     9.551     2.733    0.22E-03    0.42E-04    0.31E-06
 Optimization of the real space projectors (new method)

 maximal supplied QI-value         = 34.20
 optimisation between [QCUT,QGAM] = [  9.58, 19.15] = [ 25.68,102.74] Ry 
 Optimized for a Real-space Cutoff    1.31 Angstroem

   l    n(q)    QCUT    max X(q) W(low)/X(q) W(high)/X(q)  e(spline) 
   0      7     9.577    19.460    0.33E-03    0.12E-03    0.35E-06
   0      7     9.577    12.209    0.33E-03    0.11E-03    0.33E-06
   1      7     9.577     4.655    0.39E-03    0.14E-02    0.33E-06
 Optimization of the real space projectors (new method)

 maximal supplied QI-value         = 14.36
 optimisation between [QCUT,QGAM] = [  9.48, 19.10] = [ 25.16,102.17] Ry 
 Optimized for a Real-space Cutoff    1.57 Angstroem

   l    n(q)    QCUT    max X(q) W(low)/X(q) W(high)/X(q)  e(spline) 
   2      8     9.479   134.116    0.18E-03    0.75E-03    0.26E-06
   2      8     9.479   130.192    0.18E-03    0.75E-03    0.27E-06
   0      9     9.479    60.310    0.39E-03    0.24E-03    0.63E-07
   0      9     9.479    39.218    0.36E-03    0.22E-03    0.59E-07
   1      8     9.479    18.439    0.20E-03    0.15E-03    0.16E-06
   1      8     9.479    12.760    0.16E-03    0.11E-03    0.13E-06
 Optimization of the real space projectors (new method)

 maximal supplied QI-value         = 14.36
 optimisation between [QCUT,QGAM] = [  9.48, 19.10] = [ 25.16,102.17] Ry 
 Optimized for a Real-space Cutoff    1.57 Angstroem

   l    n(q)    QCUT    max X(q) W(low)/X(q) W(high)/X(q)  e(spline) 
   2      8     9.479    66.195    0.35E-03    0.53E-04    0.87E-07
   2      8     9.479    64.643    0.35E-03    0.57E-04    0.91E-07
   0      9     9.479    95.520    0.50E-04    0.62E-04    0.81E-07
   0      9     9.479    63.403    0.49E-04    0.60E-04    0.78E-07
   1      8     9.479    19.961    0.10E-03    0.87E-04    0.11E-06
   1      8     9.479    13.289    0.88E-04    0.71E-04    0.97E-07
  PAW_PBE Au 04Oct2007                  :
 energy of atom  1       EATOM= -926.0867
 kinetic energy error for atom=    0.0152 (will be added to EATOM!!)
  PAW_PBE C 08Apr2002                   :
 energy of atom  2       EATOM= -147.1560
 kinetic energy error for atom=    0.0854 (will be added to EATOM!!)
  PAW_PBE H 15Jun2001                   :
 energy of atom  3       EATOM=  -12.4884
 kinetic energy error for atom=    0.0203 (will be added to EATOM!!)
  PAW_PBE Ir 06Sep2000                  :
 energy of atom  4       EATOM= -560.1833
 kinetic energy error for atom=    0.0056 (will be added to EATOM!!)
  PAW_PBE Pt 04Feb2005                  :
 energy of atom  5       EATOM= -729.1176
 kinetic energy error for atom=    0.0144 (will be added to EATOM!!)
 
 
 POSCAR: Au  C  H Ir Pt                          
  positions in cartesian coordinates
  No initial velocities read in
 exchange correlation table for  LEXCH =        8
   RHO(1)=    0.500       N(1)  =     2000
   RHO(2)=  100.500       N(2)  =     4000
 


--------------------------------------------------------------------------------------------------------


 ion  position               nearest neighbor table
   1  0.845  0.835  0.546-  13 2.74  10 2.76  15 2.77  11 2.77  11 2.79  10 2.80  13 2.82   8 2.82
                            16 2.84  20 2.86   9 2.86  14 2.86
   2  0.005  0.018  0.698-   5 1.10   4 1.10   3 1.10   6 1.45  14 2.25
   3  0.886  0.215  0.716-   2 1.10
   4  0.897  0.899  0.702-   2 1.10
   5  0.220  0.903  0.710-   2 1.10
   6  0.011  0.199  0.665-   2 1.45  14 1.70  16 2.10
   7  0.502  0.004  0.394-  21 2.78  19 2.78  18 2.78  18 2.78  19 2.78  21 2.78  12 2.82   9 2.82
                            20 2.83
   8  0.171  0.671  0.470-   9 2.78  20 2.78  12 2.78  12 2.78  20 2.78   9 2.78  13 2.79  11 2.80
                             1 2.82  21 2.83  18 2.84  19 2.84
   9  0.672  0.671  0.470-   8 2.78  20 2.78  12 2.78  12 2.78  20 2.78   8 2.78  13 2.81  10 2.81
                            19 2.82   7 2.82  18 2.85   1 2.86
  10  0.841  0.334  0.544-   1 2.76  13 2.77  11 2.77  11 2.79  13 2.79  12 2.79  20 2.80  17 2.80
                             1 2.80   9 2.81  16 2.82  14 3.00
  11  0.339  0.332  0.544-  17 2.77  13 2.77  10 2.77   1 2.77  12 2.78   1 2.79  10 2.79  13 2.79
                            20 2.80   8 2.80  15 2.82  16 2.86
  12  0.172  0.171  0.470-  20 2.78   8 2.78   9 2.78   9 2.78   8 2.78  20 2.78  11 2.78  10 2.79
                            13 2.81   7 2.82  19 2.83  21 2.83
  13  0.338  0.835  0.545-   1 2.74  15 2.77  11 2.77  10 2.77  10 2.79   8 2.79  11 2.79  17 2.80
                             9 2.81  12 2.81   1 2.82  14 2.98
  14  0.001  0.990  0.626-   6 1.70   2 2.25  15 2.75  16 2.76  17 2.78  17 2.80  16 2.80  15 2.82
                             1 2.86  13 2.98  10 3.00
  15  0.506  0.991  0.619-  14 2.75   1 2.77  13 2.77  17 2.77  16 2.78  16 2.78  17 2.79  14 2.82
                            11 2.82
  16  0.005  0.491  0.621-   6 2.10  14 2.76  17 2.77  15 2.78  15 2.78  17 2.79  14 2.80  10 2.82
                             1 2.84  11 2.86
  17  0.502  0.495  0.618-  11 2.77  16 2.77  15 2.77  14 2.78  15 2.79  16 2.79  14 2.80  10 2.80
                            13 2.80
  18  0.501  0.504  0.394-  19 2.77  21 2.77   7 2.78   7 2.78  21 2.78  19 2.79  20 2.84   8 2.84
                             9 2.85
  19  0.003  0.504  0.394-  18 2.77   7 2.78  21 2.78  21 2.78   7 2.78  18 2.79   9 2.82  12 2.83
                             8 2.84
  20  0.672  0.171  0.470-   8 2.78  12 2.78   9 2.78   9 2.78  12 2.78   8 2.78  11 2.80  10 2.80
                            21 2.82   7 2.83  18 2.84   1 2.86
  21  0.003  0.004  0.394-  18 2.77   7 2.78  19 2.78  19 2.78   7 2.78  18 2.78  20 2.82  12 2.83
                             8 2.83
 
  LATTYP: Found a hexagonal cell.
 ALAT       =     5.5578593001
 C/A-ratio  =     5.5429542221
  
  Lattice vectors:
  
 A1 = (   2.7789296501,  -4.8132473446,   0.0000000000)
 A2 = (  -5.5578593001,   0.0000000000,   0.0000000000)
 A3 = (   0.0000000000,   0.0000000000, -30.8069596737)


Analysis of symmetry for initial positions (statically):
=====================================================================
 Subroutine PRICEL returns:
 Original cell was already a primitive cell.
 

 Routine SETGRP: Setting up the symmetry group for a 
 hexagonal supercell.


 Subroutine GETGRP returns: Found  1 space group operations
 (whereof  1 operations were pure point group operations)
 out of a pool of 24 trial point group operations.


The static configuration has the point symmetry C_1 .


Analysis of symmetry for dynamics (positions and initial velocities):
=====================================================================
 Subroutine PRICEL returns:
 Original cell was already a primitive cell.
 

 Routine SETGRP: Setting up the symmetry group for a 
 hexagonal supercell.


 Subroutine GETGRP returns: Found  1 space group operations
 (whereof  1 operations were pure point group operations)
 out of a pool of 24 trial point group operations.


The dynamic configuration has the point symmetry C_1 .


 Subroutine INISYM returns: Found  1 space group operations
 (whereof  1 operations are pure point group operations),
 and found     1 'primitive' translations

 
 
 KPOINTS: 0.5.Ir1.Au10                            

Automatic generation of k-mesh.
Space group operators:
 irot       det(A)        alpha          n_x          n_y          n_z        tau_x        tau_y        tau_z
    1     1.000000     0.000001     1.000000     0.000000     0.000000     0.000000     0.000000     0.000000
 
 Subroutine IBZKPT returns following result:
 ===========================================
 
 Found     96 irreducible k-points:
 
 Following reciprocal coordinates:
            Coordinates               Weight
  0.062500  0.062500  0.000000     16.000000
  0.000000  0.062500  0.000000     16.000000
 -0.062500  0.000000  0.000000     16.000000
  0.187500  0.062500  0.000000     16.000000
  0.125000  0.187500  0.000000     16.000000
 -0.062500  0.125000  0.000000     16.000000
  0.125000 -0.062500  0.000000     16.000000
 -0.062500 -0.187500  0.000000     16.000000
 -0.187500 -0.125000  0.000000     16.000000
  0.312500  0.062500  0.000000     16.000000
  0.250000  0.312500  0.000000     16.000000
 -0.062500  0.250000  0.000000     16.000000
  0.250000 -0.062500  0.000000     16.000000
 -0.062500 -0.312500  0.000000     16.000000
 -0.312500 -0.250000  0.000000     16.000000
  0.437500  0.062500  0.000000     16.000000
  0.375000  0.437500  0.000000     16.000000
 -0.062500  0.375000  0.000000     16.000000
  0.375000 -0.062500  0.000000     16.000000
 -0.062500 -0.437500  0.000000     16.000000
 -0.437500 -0.375000  0.000000     16.000000
 -0.437500  0.062500  0.000000     16.000000
  0.500000 -0.437500  0.000000     16.000000
 -0.062500  0.500000  0.000000     16.000000
  0.500000 -0.062500  0.000000     16.000000
 -0.062500  0.437500  0.000000     16.000000
  0.437500  0.500000  0.000000     16.000000
 -0.312500  0.062500  0.000000     16.000000
 -0.375000 -0.312500  0.000000     16.000000
 -0.062500 -0.375000  0.000000     16.000000
 -0.375000 -0.062500  0.000000     16.000000
 -0.062500  0.312500  0.000000     16.000000
  0.312500  0.375000  0.000000     16.000000
 -0.187500  0.062500  0.000000     16.000000
 -0.250000 -0.187500  0.000000     16.000000
 -0.062500 -0.250000  0.000000     16.000000
 -0.250000 -0.062500  0.000000     16.000000
 -0.062500  0.187500  0.000000     16.000000
  0.187500  0.250000  0.000000     16.000000
 -0.062500  0.062500  0.000000     16.000000
 -0.125000 -0.062500  0.000000     16.000000
 -0.062500 -0.125000  0.000000     16.000000
  0.187500  0.187500  0.000000     16.000000
  0.000000  0.187500  0.000000     16.000000
 -0.187500  0.000000  0.000000     16.000000
  0.312500  0.187500  0.000000     16.000000
  0.125000  0.312500  0.000000     16.000000
 -0.187500  0.125000  0.000000     16.000000
  0.125000 -0.187500  0.000000     16.000000
 -0.187500 -0.312500  0.000000     16.000000
 -0.312500 -0.125000  0.000000     16.000000
  0.437500  0.187500  0.000000     16.000000
  0.250000  0.437500  0.000000     16.000000
 -0.187500  0.250000  0.000000     16.000000
  0.250000 -0.187500  0.000000     16.000000
 -0.187500 -0.437500  0.000000     16.000000
 -0.437500 -0.250000  0.000000     16.000000
 -0.437500  0.187500  0.000000     16.000000
  0.375000 -0.437500  0.000000     16.000000
 -0.187500  0.375000  0.000000     16.000000
  0.375000 -0.187500  0.000000     16.000000
 -0.187500  0.437500  0.000000     16.000000
  0.437500 -0.375000  0.000000     16.000000
 -0.312500  0.187500  0.000000     16.000000
  0.500000 -0.312500  0.000000     16.000000
 -0.187500  0.500000  0.000000     16.000000
  0.500000 -0.187500  0.000000     16.000000
 -0.187500  0.312500  0.000000     16.000000
  0.312500  0.500000  0.000000     16.000000
 -0.187500  0.187500  0.000000     16.000000
 -0.375000 -0.187500  0.000000     16.000000
 -0.187500 -0.375000  0.000000     16.000000
  0.312500  0.312500  0.000000     16.000000
  0.000000  0.312500  0.000000     16.000000
 -0.312500  0.000000  0.000000     16.000000
  0.437500  0.312500  0.000000     16.000000
  0.125000  0.437500  0.000000     16.000000
 -0.312500  0.125000  0.000000     16.000000
  0.125000 -0.312500  0.000000     16.000000
 -0.312500 -0.437500  0.000000     16.000000
 -0.437500 -0.125000  0.000000     16.000000
 -0.437500  0.312500  0.000000     16.000000
  0.250000 -0.437500  0.000000     16.000000
 -0.312500  0.250000  0.000000     16.000000
  0.250000 -0.312500  0.000000     16.000000
 -0.312500  0.437500  0.000000     16.000000
  0.437500 -0.250000  0.000000     16.000000
 -0.312500  0.312500  0.000000     16.000000
  0.375000 -0.312500  0.000000     16.000000
 -0.312500  0.375000  0.000000     16.000000
  0.437500  0.437500  0.000000     16.000000
  0.000000  0.437500  0.000000     16.000000
 -0.437500 -0.000000  0.000000     16.000000
 -0.437500  0.437500  0.000000     16.000000
  0.125000 -0.437500  0.000000     16.000000
 -0.437500  0.125000  0.000000     16.000000
 
 Following cartesian coordinates:
            Coordinates               Weight
  0.011245  0.006492  0.000000     16.000000
  0.000000  0.012985  0.000000     16.000000
 -0.011245  0.006492  0.000000     16.000000
  0.033736 -0.006492  0.000000     16.000000
  0.022491  0.025970  0.000000     16.000000
 -0.011245  0.032462  0.000000     16.000000
  0.022491 -0.025970  0.000000     16.000000
 -0.011245 -0.032462  0.000000     16.000000
 -0.033736 -0.006492  0.000000     16.000000
  0.056227 -0.019477  0.000000     16.000000
  0.044981  0.038955  0.000000     16.000000
 -0.011245  0.058432  0.000000     16.000000
  0.044981 -0.038955  0.000000     16.000000
 -0.011245 -0.058432  0.000000     16.000000
 -0.056227 -0.019477  0.000000     16.000000
  0.078717 -0.032462  0.000000     16.000000
  0.067472  0.051940  0.000000     16.000000
 -0.011245  0.084402  0.000000     16.000000
  0.067472 -0.051940  0.000000     16.000000
 -0.011245 -0.084402  0.000000     16.000000
 -0.078717 -0.032462  0.000000     16.000000
 -0.078717  0.058432  0.000000     16.000000
  0.089963 -0.142835  0.000000     16.000000
 -0.011245  0.110372  0.000000     16.000000
  0.089963 -0.064925  0.000000     16.000000
 -0.011245  0.097387  0.000000     16.000000
  0.078717  0.058432  0.000000     16.000000
 -0.056227  0.045447  0.000000     16.000000
 -0.067472 -0.025970  0.000000     16.000000
 -0.011245 -0.071417  0.000000     16.000000
 -0.067472  0.025970  0.000000     16.000000
 -0.011245  0.071417  0.000000     16.000000
  0.056227  0.045447  0.000000     16.000000
 -0.033736  0.032462  0.000000     16.000000
 -0.044981 -0.012985  0.000000     16.000000
 -0.011245 -0.045447  0.000000     16.000000
 -0.044981  0.012985  0.000000     16.000000
 -0.011245  0.045447  0.000000     16.000000
  0.033736  0.032462  0.000000     16.000000
 -0.011245  0.019477  0.000000     16.000000
 -0.022491  0.000000  0.000000     16.000000
 -0.011245 -0.019477  0.000000     16.000000
  0.033736  0.019477  0.000000     16.000000
  0.000000  0.038955  0.000000     16.000000
 -0.033736  0.019477  0.000000     16.000000
  0.056227  0.006492  0.000000     16.000000
  0.022491  0.051940  0.000000     16.000000
 -0.033736  0.045447  0.000000     16.000000
  0.022491 -0.051940  0.000000     16.000000
 -0.033736 -0.045447  0.000000     16.000000
 -0.056227  0.006492  0.000000     16.000000
  0.078717 -0.006492  0.000000     16.000000
  0.044981  0.064925  0.000000     16.000000
 -0.033736  0.071417  0.000000     16.000000
  0.044981 -0.064925  0.000000     16.000000
 -0.033736 -0.071417  0.000000     16.000000
 -0.078717 -0.006492  0.000000     16.000000
 -0.078717  0.084402  0.000000     16.000000
  0.067472 -0.129850  0.000000     16.000000
 -0.033736  0.097387  0.000000     16.000000
  0.067472 -0.077910  0.000000     16.000000
 -0.033736  0.110372  0.000000     16.000000
  0.078717 -0.123357  0.000000     16.000000
 -0.056227  0.071417  0.000000     16.000000
  0.089963 -0.116865  0.000000     16.000000
 -0.033736  0.123357  0.000000     16.000000
  0.089963 -0.090895  0.000000     16.000000
 -0.033736  0.084402  0.000000     16.000000
  0.056227  0.071417  0.000000     16.000000
 -0.033736  0.058432  0.000000     16.000000
 -0.067472  0.000000  0.000000     16.000000
 -0.033736 -0.058432  0.000000     16.000000
  0.056227  0.032462  0.000000     16.000000
  0.000000  0.064925  0.000000     16.000000
 -0.056227  0.032462  0.000000     16.000000
  0.078717  0.019477  0.000000     16.000000
  0.022491  0.077910  0.000000     16.000000
 -0.056227  0.058432  0.000000     16.000000
  0.022491 -0.077910  0.000000     16.000000
 -0.056227 -0.058432  0.000000     16.000000
 -0.078717  0.019477  0.000000     16.000000
 -0.078717  0.110372  0.000000     16.000000
  0.044981 -0.116865  0.000000     16.000000
 -0.056227  0.084402  0.000000     16.000000
  0.044981 -0.090895  0.000000     16.000000
 -0.056227  0.123357  0.000000     16.000000
  0.078717 -0.097387  0.000000     16.000000
 -0.056227  0.097387  0.000000     16.000000
  0.067472 -0.103880  0.000000     16.000000
 -0.056227  0.110372  0.000000     16.000000
  0.078717  0.045447  0.000000     16.000000
  0.000000  0.090895  0.000000     16.000000
 -0.078717  0.045447  0.000000     16.000000
 -0.078717  0.136342  0.000000     16.000000
  0.022491 -0.103880  0.000000     16.000000
 -0.078717  0.071417  0.000000     16.000000
 


--------------------------------------------------------------------------------------------------------




 Dimension of arrays:
   k-points           NKPTS =     96   k-points in BZ     NKDIM =     96   number of bands    NBANDS=    100
   number of dos      NEDOS =    301   number of ions     NIONS =     21
   non local maximal  LDIM  =      6   non local SUM 2l+1 LMDIM =     18
   total plane-waves  NPLWV = 112896
   max r-space proj   IRMAX =   2252   max aug-charges    IRDMAX=  10104
   dimension x,y,z NGX =    28 NGY =   28 NGZ =  144
   dimension x,y,z NGXF=    56 NGYF=   56 NGZF=  288
   support grid    NGXF=    56 NGYF=   56 NGZF=  288
   ions per type =               1   1   4   1  14
   NGX,Y,Z   is equivalent  to a cutoff of   8.38,  8.38,  7.77 a.u.
   NGXF,Y,Z  is equivalent  to a cutoff of  16.75, 16.75, 15.54 a.u.

 SYSTEM =  0.5.Ir1.Au10                            
 POSCAR =  Au  C  H Ir Pt                          

 Startparameter for this run:
   NWRITE =      2    write-flag & timer
   PREC   = normal    normal or accurate (medium, high low for compatibility)
   ISTART =      0    job   : 0-new  1-cont  2-samecut
   ICHARG =      2    charge: 1-file 2-atom 10-const
   ISPIN  =      1    spin polarized calculation?
   LNONCOLLINEAR =      F non collinear calculations
   LSORBIT =      F    spin-orbit coupling
   INIWAV =      1    electr: 0-lowe 1-rand  2-diag
   LASPH  =      F    aspherical Exc in radial PAW
   METAGGA=      F    non-selfconsistent MetaGGA calc.

 Electronic Relaxation 1
   ENCUT  =  350.0 eV  25.72 Ry    5.07 a.u.   8.48  8.48 46.99*2*pi/ulx,y,z
   ENINI  =  350.0     initial cutoff
   ENAUG  =  644.9 eV  augmentation charge cutoff
   NELM   =   1000;   NELMIN=  5; NELMDL= -5     # of ELM steps 
   EDIFF  = 0.1E-04   stopping-criterion for ELM
   LREAL  =      T    real-space projection
   NLSPLINE    = F    spline interpolate recip. space projectors
   LCOMPAT=      F    compatible to vasp.4.4
   GGA_COMPAT  = T    GGA compatible to vasp.4.4-vasp.4.6
   LMAXPAW     = -100 max onsite density
   LMAXMIX     =    2 max onsite mixed and CHGCAR
   VOSKOWN=      0    Vosko Wilk Nusair interpolation
   ROPT   =   -0.00050  -0.00050  -0.00050  -0.00050
   ROPT   =   -0.00050
 Ionic relaxation
   EDIFFG = 0.1E-03   stopping-criterion for IOM
   NSW    =      0    number of steps for IOM
   NBLOCK =      1;   KBLOCK =      1    inner block; outer block 
   IBRION =     -1    ionic relax: 0-MD 1-quasi-New 2-CG
   NFREE  =      0    steps in history (QN), initial steepest desc. (CG)
   ISIF   =      2    stress and relaxation
   IWAVPR =     10    prediction:  0-non 1-charg 2-wave 3-comb
   ISYM   =      2    0-nonsym 1-usesym 2-fastsym
   LCORR  =      T    Harris-Foulkes like correction to forces

   POTIM  = 0.5000    time-step for ionic-motion
   TEIN   =    0.0    initial temperature
   TEBEG  =    0.0;   TEEND  =   0.0 temperature during run
   SMASS  =  -3.00    Nose mass-parameter (am)
   estimated Nose-frequenzy (Omega)   =  0.10E-29 period in steps =****** mass=  -0.706E-27a.u.
   SCALEE = 1.0000    scale energy and forces
   NPACO  =    256;   APACO  = 16.0  distance and # of slots for P.C.
   PSTRESS=    0.0 pullay stress

  Mass of Ions in am
   POMASS = 196.97 12.01  1.00192.22195.08
  Ionic Valenz
   ZVAL   =  11.00  4.00  1.00  9.00 10.00
  Atomic Wigner-Seitz radii
   RWIGS  =  -1.00 -1.00 -1.00 -1.00 -1.00
  virtual crystal weights 
   VCA    =   1.00  1.00  1.00  1.00  1.00
   NELECT =     168.0000    total number of electrons
   NUPDOWN=      -1.0000    fix difference up-down

 DOS related values:
   EMIN   =  10.00;   EMAX   =-10.00  energy-range for DOS
   EFERMI =   0.00
   ISMEAR =     1;   SIGMA  =   0.20  broadening in eV -4-tet -1-fermi 0-gaus

 Electronic relaxation 2 (details)
   IALGO  =     38    algorithm
   LDIAG  =      T    sub-space diagonalisation (order eigenvalues)
   LSUBROT=      F    optimize rotation matrix (better conditioning)
   TURBO    =      0    0=normal 1=particle mesh
   IRESTART =      0    0=no restart 2=restart with 2 vectors
   NREBOOT  =      0    no. of reboots
   NMIN     =      0    reboot dimension
   EREF     =   0.00    reference energy to select bands
   IMIX   =      4    mixing-type and parameters
     AMIX     =   0.40;   BMIX     =  1.00
     AMIX_MAG =   1.60;   BMIX_MAG =  1.00
     AMIN     =   0.10
     WC   =   100.;   INIMIX=   1;  MIXPRE=   1;  MAXMIX= -45

 Intra band minimization:
   WEIMIN = 0.0000     energy-eigenvalue tresh-hold
   EBREAK =  0.25E-07  absolut break condition
   DEPER  =   0.30     relativ break condition  

   TIME   =   0.40     timestep for ELM

  volume/ion in A,a.u.               =      39.24       264.83
  Fermi-wavevector in a.u.,A,eV,Ry     =   0.963488  1.820729 12.630418  0.928310
  Thomas-Fermi vector in A             =   2.093038
 
 Write flags
   LWAVE        =      F    write WAVECAR
   LDOWNSAMPLE  =      F    k-point downsampling of WAVECAR
   LCHARG       =      F    write CHGCAR
   LVTOT        =      F    write LOCPOT, total local potential
   LVHAR        =      F    write LOCPOT, Hartree potential only
   LELF         =      F    write electronic localiz. function (ELF)
   LORBIT       =      0    0 simple, 1 ext, 2 COOP (PROOUT), +10 PAW based schemes


 Dipole corrections
   LMONO  =      F    monopole corrections only (constant potential shift)
   LDIPOL =      F    correct potential (dipole corrections)
   IDIPOL =      3    1-x, 2-y, 3-z, 4-all directions 
   EPSILON=  1.0000000 bulk dielectric constant

 Exchange correlation treatment:
   GGA     =    --    GGA type
   LEXCH   =     8    internal setting for exchange type
   VOSKOWN=      0    Vosko Wilk Nusair interpolation
   LHFCALC =     F    Hartree Fock is set to
   LHFONE  =     F    Hartree Fock one center treatment
   AEXX    =    0.0000 exact exchange contribution

 Linear response parameters
   LEPSILON=     F    determine dielectric tensor
   LRPA    =     F    only Hartree local field effects (RPA)
   LNABLA  =     F    use nabla operator in PAW spheres
   LVEL    =     F    velocity operator in full k-point grid
   LINTERFAST=   F  fast interpolation
   KINTER  =     0    interpolate to denser k-point grid
   CSHIFT  =0.1000    complex shift for real part using Kramers Kronig
   OMEGAMAX=  -1.0    maximum frequency
   DEG_THRESHOLD= 0.2000000E-02 threshold for treating states as degnerate
   RTIME   =   -0.100 relaxation time in fs
  (WPLASMAI=    0.000 imaginary part of plasma frequency in eV, 0.658/RTIME)
   DFIELD  = 0.0000000 0.0000000 0.0000000 field for delta impulse in time
 
 Orbital magnetization related:
   ORBITALMAG=     F  switch on orbital magnetization
   LCHIMAG   =     F  perturbation theory with respect to B field
   DQ        =  0.001000  dq finite difference perturbation B field
   LLRAUG    =     F  two centre corrections for induced B field



--------------------------------------------------------------------------------------------------------


 Static calculation
 charge density and potential will be updated during run
 non-spin polarized calculation
 Variant of blocked Davidson
 Davidson routine will perform the subspace rotation
 perform sub-space diagonalisation
    after iterative eigenvector-optimisation
 modified Broyden-mixing scheme, WC =      100.0
 initial mixing is a Kerker type mixing with AMIX =  0.4000 and BMIX =      1.0000
 Hartree-type preconditioning will be used
 using additional bands           16
 real space projection scheme for non local part
 use partial core corrections
 calculate Harris-corrections to forces 
   (improved forces if not selfconsistent)
 use gradient corrections 
 use of overlap-Matrix (Vanderbilt PP)
 Methfessel and Paxton  Order N= 1 SIGMA  =   0.20


--------------------------------------------------------------------------------------------------------


  energy-cutoff  :      350.00
  volume of cell :      824.13
      direct lattice vectors                 reciprocal lattice vectors
     5.557859300  0.000000000  0.000000000     0.179925390 -0.103879972  0.000000000
     2.778929650  4.813247345  0.000000000     0.000000000  0.207759944  0.000000000
     0.000000000  0.000000000 30.806959674     0.000000000  0.000000000  0.032460198

  length of vectors
     5.557859300  5.557859300 30.806959674     0.207759944  0.207759944  0.032460198


 
 k-points in units of 2pi/SCALE and weight: 0.5.Ir1.Au10                            
   0.01124534  0.00649250  0.00000000       0.010
   0.00000000  0.01298500  0.00000000       0.010
  -0.01124534  0.00649250  0.00000000       0.010
   0.03373601 -0.00649250  0.00000000       0.010
   0.02249067  0.02596999  0.00000000       0.010
  -0.01124534  0.03246249  0.00000000       0.010
   0.02249067 -0.02596999  0.00000000       0.010
  -0.01124534 -0.03246249  0.00000000       0.010
  -0.03373601 -0.00649250  0.00000000       0.010
   0.05622668 -0.01947749  0.00000000       0.010
   0.04498135  0.03895499  0.00000000       0.010
  -0.01124534  0.05843248  0.00000000       0.010
   0.04498135 -0.03895499  0.00000000       0.010
  -0.01124534 -0.05843248  0.00000000       0.010
  -0.05622668 -0.01947749  0.00000000       0.010
   0.07871736 -0.03246249  0.00000000       0.010
   0.06747202  0.05193999  0.00000000       0.010
  -0.01124534  0.08440248  0.00000000       0.010
   0.06747202 -0.05193999  0.00000000       0.010
  -0.01124534 -0.08440248  0.00000000       0.010
  -0.07871736 -0.03246249  0.00000000       0.010
  -0.07871736  0.05843248  0.00000000       0.010
   0.08996269 -0.14283496  0.00000000       0.010
  -0.01124534  0.11037247  0.00000000       0.010
   0.08996269 -0.06492498  0.00000000       0.010
  -0.01124534  0.09738747  0.00000000       0.010
   0.07871736  0.05843248  0.00000000       0.010
  -0.05622668  0.04544749  0.00000000       0.010
  -0.06747202 -0.02596999  0.00000000       0.010
  -0.01124534 -0.07141748  0.00000000       0.010
  -0.06747202  0.02596999  0.00000000       0.010
  -0.01124534  0.07141748  0.00000000       0.010
   0.05622668  0.04544749  0.00000000       0.010
  -0.03373601  0.03246249  0.00000000       0.010
  -0.04498135 -0.01298500  0.00000000       0.010
  -0.01124534 -0.04544749  0.00000000       0.010
  -0.04498135  0.01298500  0.00000000       0.010
  -0.01124534  0.04544749  0.00000000       0.010
   0.03373601  0.03246249  0.00000000       0.010
  -0.01124534  0.01947749  0.00000000       0.010
  -0.02249067  0.00000000  0.00000000       0.010
  -0.01124534 -0.01947749  0.00000000       0.010
   0.03373601  0.01947749  0.00000000       0.010
   0.00000000  0.03895499  0.00000000       0.010
  -0.03373601  0.01947749  0.00000000       0.010
   0.05622668  0.00649250  0.00000000       0.010
   0.02249067  0.05193999  0.00000000       0.010
  -0.03373601  0.04544749  0.00000000       0.010
   0.02249067 -0.05193999  0.00000000       0.010
  -0.03373601 -0.04544749  0.00000000       0.010
  -0.05622668  0.00649250  0.00000000       0.010
   0.07871736 -0.00649250  0.00000000       0.010
   0.04498135  0.06492498  0.00000000       0.010
  -0.03373601  0.07141748  0.00000000       0.010
   0.04498135 -0.06492498  0.00000000       0.010
  -0.03373601 -0.07141748  0.00000000       0.010
  -0.07871736 -0.00649250  0.00000000       0.010
  -0.07871736  0.08440248  0.00000000       0.010
   0.06747202 -0.12984997  0.00000000       0.010
  -0.03373601  0.09738747  0.00000000       0.010
   0.06747202 -0.07790998  0.00000000       0.010
  -0.03373601  0.11037247  0.00000000       0.010
   0.07871736 -0.12335747  0.00000000       0.010
  -0.05622668  0.07141748  0.00000000       0.010
   0.08996269 -0.11686497  0.00000000       0.010
  -0.03373601  0.12335747  0.00000000       0.010
   0.08996269 -0.09089498  0.00000000       0.010
  -0.03373601  0.08440248  0.00000000       0.010
   0.05622668  0.07141748  0.00000000       0.010
  -0.03373601  0.05843248  0.00000000       0.010
  -0.06747202  0.00000000  0.00000000       0.010
  -0.03373601 -0.05843248  0.00000000       0.010
   0.05622668  0.03246249  0.00000000       0.010
   0.00000000  0.06492498  0.00000000       0.010
  -0.05622668  0.03246249  0.00000000       0.010
   0.07871736  0.01947749  0.00000000       0.010
   0.02249067  0.07790998  0.00000000       0.010
  -0.05622668  0.05843248  0.00000000       0.010
   0.02249067 -0.07790998  0.00000000       0.010
  -0.05622668 -0.05843248  0.00000000       0.010
  -0.07871736  0.01947749  0.00000000       0.010
  -0.07871736  0.11037247  0.00000000       0.010
   0.04498135 -0.11686497  0.00000000       0.010
  -0.05622668  0.08440248  0.00000000       0.010
   0.04498135 -0.09089498  0.00000000       0.010
  -0.05622668  0.12335747  0.00000000       0.010
   0.07871736 -0.09738747  0.00000000       0.010
  -0.05622668  0.09738747  0.00000000       0.010
   0.06747202 -0.10387997  0.00000000       0.010
  -0.05622668  0.11037247  0.00000000       0.010
   0.07871736  0.04544749  0.00000000       0.010
   0.00000000  0.09089498  0.00000000       0.010
  -0.07871736  0.04544749  0.00000000       0.010
  -0.07871736  0.13634246  0.00000000       0.010
   0.02249067 -0.10387997  0.00000000       0.010
  -0.07871736  0.07141748  0.00000000       0.010
 
 k-points in reciprocal lattice and weights: 0.5.Ir1.Au10                            
   0.06250000  0.06250000  0.00000000       0.010
   0.00000000  0.06250000  0.00000000       0.010
  -0.06250000  0.00000000  0.00000000       0.010
   0.18750000  0.06250000  0.00000000       0.010
   0.12500000  0.18750000  0.00000000       0.010
  -0.06250000  0.12500000  0.00000000       0.010
   0.12500000 -0.06250000  0.00000000       0.010
  -0.06250000 -0.18750000  0.00000000       0.010
  -0.18750000 -0.12500000  0.00000000       0.010
   0.31250000  0.06250000  0.00000000       0.010
   0.25000000  0.31250000  0.00000000       0.010
  -0.06250000  0.25000000  0.00000000       0.010
   0.25000000 -0.06250000  0.00000000       0.010
  -0.06250000 -0.31250000  0.00000000       0.010
  -0.31250000 -0.25000000  0.00000000       0.010
   0.43750000  0.06250000  0.00000000       0.010
   0.37500000  0.43750000  0.00000000       0.010
  -0.06250000  0.37500000  0.00000000       0.010
   0.37500000 -0.06250000  0.00000000       0.010
  -0.06250000 -0.43750000  0.00000000       0.010
  -0.43750000 -0.37500000  0.00000000       0.010
  -0.43750000  0.06250000  0.00000000       0.010
   0.50000000 -0.43750000  0.00000000       0.010
  -0.06250000  0.50000000  0.00000000       0.010
   0.50000000 -0.06250000  0.00000000       0.010
  -0.06250000  0.43750000  0.00000000       0.010
   0.43750000  0.50000000  0.00000000       0.010
  -0.31250000  0.06250000  0.00000000       0.010
  -0.37500000 -0.31250000  0.00000000       0.010
  -0.06250000 -0.37500000  0.00000000       0.010
  -0.37500000 -0.06250000  0.00000000       0.010
  -0.06250000  0.31250000  0.00000000       0.010
   0.31250000  0.37500000  0.00000000       0.010
  -0.18750000  0.06250000  0.00000000       0.010
  -0.25000000 -0.18750000  0.00000000       0.010
  -0.06250000 -0.25000000  0.00000000       0.010
  -0.25000000 -0.06250000  0.00000000       0.010
  -0.06250000  0.18750000  0.00000000       0.010
   0.18750000  0.25000000  0.00000000       0.010
  -0.06250000  0.06250000  0.00000000       0.010
  -0.12500000 -0.06250000  0.00000000       0.010
  -0.06250000 -0.12500000  0.00000000       0.010
   0.18750000  0.18750000  0.00000000       0.010
   0.00000000  0.18750000  0.00000000       0.010
  -0.18750000  0.00000000  0.00000000       0.010
   0.31250000  0.18750000  0.00000000       0.010
   0.12500000  0.31250000  0.00000000       0.010
  -0.18750000  0.12500000  0.00000000       0.010
   0.12500000 -0.18750000  0.00000000       0.010
  -0.18750000 -0.31250000  0.00000000       0.010
  -0.31250000 -0.12500000  0.00000000       0.010
   0.43750000  0.18750000  0.00000000       0.010
   0.25000000  0.43750000  0.00000000       0.010
  -0.18750000  0.25000000  0.00000000       0.010
   0.25000000 -0.18750000  0.00000000       0.010
  -0.18750000 -0.43750000  0.00000000       0.010
  -0.43750000 -0.25000000  0.00000000       0.010
  -0.43750000  0.18750000  0.00000000       0.010
   0.37500000 -0.43750000  0.00000000       0.010
  -0.18750000  0.37500000  0.00000000       0.010
   0.37500000 -0.18750000  0.00000000       0.010
  -0.18750000  0.43750000  0.00000000       0.010
   0.43750000 -0.37500000  0.00000000       0.010
  -0.31250000  0.18750000  0.00000000       0.010
   0.50000000 -0.31250000  0.00000000       0.010
  -0.18750000  0.50000000  0.00000000       0.010
   0.50000000 -0.18750000  0.00000000       0.010
  -0.18750000  0.31250000  0.00000000       0.010
   0.31250000  0.50000000  0.00000000       0.010
  -0.18750000  0.18750000  0.00000000       0.010
  -0.37500000 -0.18750000  0.00000000       0.010
  -0.18750000 -0.37500000  0.00000000       0.010
   0.31250000  0.31250000  0.00000000       0.010
   0.00000000  0.31250000  0.00000000       0.010
  -0.31250000  0.00000000  0.00000000       0.010
   0.43750000  0.31250000  0.00000000       0.010
   0.12500000  0.43750000  0.00000000       0.010
  -0.31250000  0.12500000  0.00000000       0.010
   0.12500000 -0.31250000  0.00000000       0.010
  -0.31250000 -0.43750000  0.00000000       0.010
  -0.43750000 -0.12500000  0.00000000       0.010
  -0.43750000  0.31250000  0.00000000       0.010
   0.25000000 -0.43750000  0.00000000       0.010
  -0.31250000  0.25000000  0.00000000       0.010
   0.25000000 -0.31250000  0.00000000       0.010
  -0.31250000  0.43750000  0.00000000       0.010
   0.43750000 -0.25000000  0.00000000       0.010
  -0.31250000  0.31250000  0.00000000       0.010
   0.37500000 -0.31250000  0.00000000       0.010
  -0.31250000  0.37500000  0.00000000       0.010
   0.43750000  0.43750000  0.00000000       0.010
   0.00000000  0.43750000  0.00000000       0.010
  -0.43750000 -0.00000000  0.00000000       0.010
  -0.43750000  0.43750000  0.00000000       0.010
   0.12500000 -0.43750000  0.00000000       0.010
  -0.43750000  0.12500000  0.00000000       0.010
 
 position of ions in fractional coordinates (direct lattice) 
   0.84498985  0.83511317  0.54630159
   0.00455188  0.01809239  0.69826898
   0.88555978  0.21542093  0.71605684
   0.89683584  0.89902911  0.70192826
   0.21990527  0.90250192  0.70968106
   0.01082890  0.19933891  0.66484866
   0.50216607  0.00394927  0.39441784
   0.17112408  0.67076527  0.47034387
   0.67178249  0.67082144  0.46985119
   0.84053269  0.33358080  0.54447378
   0.33934189  0.33244356  0.54427055
   0.17151367  0.17052295  0.47004266
   0.33829960  0.83492886  0.54461086
   0.00107615  0.99010181  0.62553369
   0.50642684  0.99120149  0.61877215
   0.00534332  0.49119854  0.62105388
   0.50173592  0.49482435  0.61832594
   0.50142232  0.50378574  0.39390381
   0.00294830  0.50362763  0.39434885
   0.67162093  0.17073418  0.46984191
   0.00291085  0.00358528  0.39448330
 
 position of ions in cartesian coordinates  (Angst):
   7.01705543  4.01960625 16.82989113
   0.07557620  0.08708313 21.51154444
   5.52045625  1.03687421 22.05953431
   7.48282607  4.32724946 21.62427562
   3.73019189  4.34396499 21.86311573
   0.61413428  0.95946746 20.48196579
   2.80194312  0.01900883 12.15081435
   2.81509307  3.22855918 14.48986472
   5.59783817  3.22882952 14.47468664
   5.59856000  1.60560690 16.77358179
   2.80985173  1.60013307 16.76732076
   1.42712012  0.82076911 14.48058524
   4.20043014  4.01871910 16.77780489
   2.75740435  4.76560490 19.27079117
   5.56912836  4.77089794 19.06248871
   1.39470359  2.36426007 19.13278176
   4.16365968  2.38171199 19.04874218
   4.18681982  2.42484536 12.13497875
   1.41593201  2.42408436 12.14868907
   4.20723291  0.82178583 14.47440084
   0.02614133  0.01725686 12.15283102
 


--------------------------------------------------------------------------------------------------------


 k-point  1 :   0.0625 0.0625 0.0000  plane waves:   12325
 k-point  2 :   0.0000 0.0625 0.0000  plane waves:   12325
 k-point  3 :  -0.0625 0.0000 0.0000  plane waves:   12325
 k-point  4 :   0.1875 0.0625 0.0000  plane waves:   12294
 k-point  5 :   0.1250 0.1875 0.0000  plane waves:   12294
 k-point  6 :  -0.0625 0.1250 0.0000  plane waves:   12294
 k-point  7 :   0.1250-0.0625 0.0000  plane waves:   12294
 k-point  8 :  -0.0625-0.1875 0.0000  plane waves:   12294
 k-point  9 :  -0.1875-0.1250 0.0000  plane waves:   12294
 k-point 10 :   0.3125 0.0625 0.0000  plane waves:   12263
 k-point 11 :   0.2500 0.3125 0.0000  plane waves:   12263
 k-point 12 :  -0.0625 0.2500 0.0000  plane waves:   12263
 k-point 13 :   0.2500-0.0625 0.0000  plane waves:   12263
 k-point 14 :  -0.0625-0.3125 0.0000  plane waves:   12263
 k-point 15 :  -0.3125-0.2500 0.0000  plane waves:   12263
 k-point 16 :   0.4375 0.0625 0.0000  plane waves:   12221
 k-point 17 :   0.3750 0.4375 0.0000  plane waves:   12221
 k-point 18 :  -0.0625 0.3750 0.0000  plane waves:   12221
 k-point 19 :   0.3750-0.0625 0.0000  plane waves:   12221
 k-point 20 :  -0.0625-0.4375 0.0000  plane waves:   12221
 k-point 21 :  -0.4375-0.3750 0.0000  plane waves:   12221
 k-point 22 :  -0.4375 0.0625 0.0000  plane waves:   12211
 k-point 23 :   0.5000-0.4375 0.0000  plane waves:   12211
 k-point 24 :  -0.0625 0.5000 0.0000  plane waves:   12211
 k-point 25 :   0.5000-0.0625 0.0000  plane waves:   12211
 k-point 26 :  -0.0625 0.4375 0.0000  plane waves:   12211
 k-point 27 :   0.4375 0.5000 0.0000  plane waves:   12211
 k-point 28 :  -0.3125 0.0625 0.0000  plane waves:   12242
 k-point 29 :  -0.3750-0.3125 0.0000  plane waves:   12242
 k-point 30 :  -0.0625-0.3750 0.0000  plane waves:   12242
 k-point 31 :  -0.3750-0.0625 0.0000  plane waves:   12242
 k-point 32 :  -0.0625 0.3125 0.0000  plane waves:   12242
 k-point 33 :   0.3125 0.3750 0.0000  plane waves:   12242
 k-point 34 :  -0.1875 0.0625 0.0000  plane waves:   12280
 k-point 35 :  -0.2500-0.1875 0.0000  plane waves:   12280
 k-point 36 :  -0.0625-0.2500 0.0000  plane waves:   12280
 k-point 37 :  -0.2500-0.0625 0.0000  plane waves:   12280
 k-point 38 :  -0.0625 0.1875 0.0000  plane waves:   12280
 k-point 39 :   0.1875 0.2500 0.0000  plane waves:   12280
 k-point 40 :  -0.0625 0.0625 0.0000  plane waves:   12329
 k-point 41 :  -0.1250-0.0625 0.0000  plane waves:   12329
 k-point 42 :  -0.0625-0.1250 0.0000  plane waves:   12329
 k-point 43 :   0.1875 0.1875 0.0000  plane waves:   12277
 k-point 44 :   0.0000 0.1875 0.0000  plane waves:   12277
 k-point 45 :  -0.1875 0.0000 0.0000  plane waves:   12277
 k-point 46 :   0.3125 0.1875 0.0000  plane waves:   12288
 k-point 47 :   0.1250 0.3125 0.0000  plane waves:   12288
 k-point 48 :  -0.1875 0.1250 0.0000  plane waves:   12288
 k-point 49 :   0.1250-0.1875 0.0000  plane waves:   12288
 k-point 50 :  -0.1875-0.3125 0.0000  plane waves:   12288
 k-point 51 :  -0.3125-0.1250 0.0000  plane waves:   12288
 k-point 52 :   0.4375 0.1875 0.0000  plane waves:   12234
 k-point 53 :   0.2500 0.4375 0.0000  plane waves:   12234
 k-point 54 :  -0.1875 0.2500 0.0000  plane waves:   12234
 k-point 55 :   0.2500-0.1875 0.0000  plane waves:   12234
 k-point 56 :  -0.1875-0.4375 0.0000  plane waves:   12234
 k-point 57 :  -0.4375-0.2500 0.0000  plane waves:   12234
 k-point 58 :  -0.4375 0.1875 0.0000  plane waves:   12216
 k-point 59 :   0.3750-0.4375 0.0000  plane waves:   12216
 k-point 60 :  -0.1875 0.3750 0.0000  plane waves:   12216
 k-point 61 :   0.3750-0.1875 0.0000  plane waves:   12216
 k-point 62 :  -0.1875 0.4375 0.0000  plane waves:   12216
 k-point 63 :   0.4375-0.3750 0.0000  plane waves:   12216
 k-point 64 :  -0.3125 0.1875 0.0000  plane waves:   12215
 k-point 65 :   0.5000-0.3125 0.0000  plane waves:   12215
 k-point 66 :  -0.1875 0.5000 0.0000  plane waves:   12215
 k-point 67 :   0.5000-0.1875 0.0000  plane waves:   12215
 k-point 68 :  -0.1875 0.3125 0.0000  plane waves:   12215
 k-point 69 :   0.3125 0.5000 0.0000  plane waves:   12215
 k-point 70 :  -0.1875 0.1875 0.0000  plane waves:   12289
 k-point 71 :  -0.3750-0.1875 0.0000  plane waves:   12289
 k-point 72 :  -0.1875-0.3750 0.0000  plane waves:   12289
 k-point 73 :   0.3125 0.3125 0.0000  plane waves:   12275
 k-point 74 :   0.0000 0.3125 0.0000  plane waves:   12275
 k-point 75 :  -0.3125 0.0000 0.0000  plane waves:   12275
 k-point 76 :   0.4375 0.3125 0.0000  plane waves:   12239
 k-point 77 :   0.1250 0.4375 0.0000  plane waves:   12239
 k-point 78 :  -0.3125 0.1250 0.0000  plane waves:   12239
 k-point 79 :   0.1250-0.3125 0.0000  plane waves:   12239
 k-point 80 :  -0.3125-0.4375 0.0000  plane waves:   12239
 k-point 81 :  -0.4375-0.1250 0.0000  plane waves:   12239
 k-point 82 :  -0.4375 0.3125 0.0000  plane waves:   12235
 k-point 83 :   0.2500-0.4375 0.0000  plane waves:   12235
 k-point 84 :  -0.3125 0.2500 0.0000  plane waves:   12235
 k-point 85 :   0.2500-0.3125 0.0000  plane waves:   12235
 k-point 86 :  -0.3125 0.4375 0.0000  plane waves:   12235
 k-point 87 :   0.4375-0.2500 0.0000  plane waves:   12235
 k-point 88 :  -0.3125 0.3125 0.0000  plane waves:   12232
 k-point 89 :   0.3750-0.3125 0.0000  plane waves:   12232
 k-point 90 :  -0.3125 0.3750 0.0000  plane waves:   12232
 k-point 91 :   0.4375 0.4375 0.0000  plane waves:   12200
 k-point 92 :   0.0000 0.4375 0.0000  plane waves:   12200
 k-point 93 :  -0.4375-0.0000 0.0000  plane waves:   12200
 k-point 94 :  -0.4375 0.4375 0.0000  plane waves:   12214
 k-point 95 :   0.1250-0.4375 0.0000  plane waves:   12214
 k-point 96 :  -0.4375 0.1250 0.0000  plane waves:   12214

 maximum and minimum number of plane-waves per node :      3101     2992

 maximum number of plane-waves:     12329
 maximum index in each direction: 
   IXMAX=    8   IYMAX=    8   IZMAX=   46
   IXMIN=   -8   IYMIN=   -8   IZMIN=  -46


 real space projection operators:
  total allocation   :       5097.58 KBytes
  max/ min on nodes  :       1279.02       1270.19


 parallel 3D FFT for wavefunctions:
    minimum data exchange during FFTs selected (reduces bandwidth)
 parallel 3D FFT for charge:
    minimum data exchange during FFTs selected (reduces bandwidth)


 total amount of memory used by VASP MPI-rank0   164313. kBytes
=======================================================================

   base      :      30000. kBytes
   nonlr-proj:       2360. kBytes
   fftplans  :       2967. kBytes
   grid      :       6321. kBytes
   one-center:         93. kBytes
   wavefun   :     122572. kBytes
 
     INWAV:  cpu time    0.0000: real time    0.0000
 Broyden mixing: mesh for mixing (old mesh)
   NGX = 17   NGY = 17   NGZ = 93
  (NGX  = 56   NGY  = 56   NGZ  =288)
  gives a total of  26877 points

 initial charge density was supplied:
 charge density of overlapping atoms calculated
 number of electron     168.0000000 magnetization 
 keeping initial charge density in first step


--------------------------------------------------------------------------------------------------------


 Maximum index for non-local projection operator          544
 Maximum index for augmentation-charges          718 (set IRDMAX)


--------------------------------------------------------------------------------------------------------


 First call to EWALD:  gamma=   0.189
 Maximum number of real-space cells 5x 5x 1
 Maximum number of reciprocal cells 2x 2x 8

    FEWALD:  cpu time    0.0014: real time    0.0014


--------------------------------------- Iteration      1(   1)  ---------------------------------------


    POTLOK:  cpu time    0.0261: real time    0.0319
    SETDIJ:  cpu time    0.0035: real time    0.0035
     EDDAV:  cpu time   14.2889: real time   14.2915
       DOS:  cpu time    0.0079: real time    0.0078
    --------------------------------------------
      LOOP:  cpu time   14.3264: real time   14.3348

 eigenvalue-minimisations  : 19296
 total energy-change (2. order) : 0.1031030E+04  (-0.5832398E+04)
 number of electron     168.0000000 magnetization 
 augmentation part      168.0000000 magnetization 

 Free energy of the ion-electron system (eV)
  ---------------------------------------------------
  alpha Z        PSCENC =       324.87461712
  Ewald energy   TEWEN  =    101520.67694717
  -Hartree energ DENC   =   -113807.30043879
  -exchange      EXHF   =         0.00000000
  -V(xc)+E(xc)   XCENC  =        69.44694116
  PAW double counting   =     11288.27476651   -10829.50941267
  entropy T*S    EENTRO =        -0.00184353
  eigenvalues    EBANDS =       573.93090359
  atomic energy  EATOM  =     11890.63736546
  Solvation  Ediel_sol  =         0.00000000
  ---------------------------------------------------
  free energy    TOTEN  =      1031.02984602 eV

  energy without entropy =     1031.03168955  energy(sigma->0) =     1031.03046053


--------------------------------------------------------------------------------------------------------




--------------------------------------- Iteration      1(   2)  ---------------------------------------


     EDDAV:  cpu time   16.9479: real time   16.9495
       DOS:  cpu time    0.0087: real time    0.0087
    --------------------------------------------
      LOOP:  cpu time   16.9566: real time   16.9582

 eigenvalue-minimisations  : 24016
 total energy-change (2. order) :-0.1058868E+04  (-0.9847981E+03)
 number of electron     168.0000000 magnetization 
 augmentation part      168.0000000 magnetization 

 Free energy of the ion-electron system (eV)
  ---------------------------------------------------
  alpha Z        PSCENC =       324.87461712
  Ewald energy   TEWEN  =    101520.67694717
  -Hartree energ DENC   =   -113807.30043879
  -exchange      EXHF   =         0.00000000
  -V(xc)+E(xc)   XCENC  =        69.44694116
  PAW double counting   =     11288.27476651   -10829.50941267
  entropy T*S    EENTRO =         0.00666327
  eigenvalues    EBANDS =      -484.94578812
  atomic energy  EATOM  =     11890.63736546
  Solvation  Ediel_sol  =         0.00000000
  ---------------------------------------------------
  free energy    TOTEN  =       -27.83833889 eV

  energy without entropy =      -27.84500216  energy(sigma->0) =      -27.84055998


--------------------------------------------------------------------------------------------------------




--------------------------------------- Iteration      1(   3)  ---------------------------------------


     EDDAV:  cpu time   16.2350: real time   16.2401
       DOS:  cpu time    0.0090: real time    0.0090
    --------------------------------------------
      LOOP:  cpu time   16.2440: real time   16.2491

 eigenvalue-minimisations  : 22760
 total energy-change (2. order) :-0.9148899E+02  (-0.8456564E+02)
 number of electron     168.0000000 magnetization 
 augmentation part      168.0000000 magnetization 

 Free energy of the ion-electron system (eV)
  ---------------------------------------------------
  alpha Z        PSCENC =       324.87461712
  Ewald energy   TEWEN  =    101520.67694717
  -Hartree energ DENC   =   -113807.30043879
  -exchange      EXHF   =         0.00000000
  -V(xc)+E(xc)   XCENC  =        69.44694116
  PAW double counting   =     11288.27476651   -10829.50941267
  entropy T*S    EENTRO =        -0.00983757
  eigenvalues    EBANDS =      -576.41827721
  atomic energy  EATOM  =     11890.63736546
  Solvation  Ediel_sol  =         0.00000000
  ---------------------------------------------------
  free energy    TOTEN  =      -119.32732882 eV

  energy without entropy =     -119.31749125  energy(sigma->0) =     -119.32404963


--------------------------------------------------------------------------------------------------------




--------------------------------------- Iteration      1(   4)  ---------------------------------------


     EDDAV:  cpu time   17.8897: real time   17.8908
       DOS:  cpu time    0.0091: real time    0.0091
    --------------------------------------------
      LOOP:  cpu time   17.8988: real time   17.8999

 eigenvalue-minimisations  : 25840
 total energy-change (2. order) :-0.4590081E+01  (-0.4361986E+01)
 number of electron     168.0000000 magnetization 
 augmentation part      168.0000000 magnetization 

 Free energy of the ion-electron system (eV)
  ---------------------------------------------------
  alpha Z        PSCENC =       324.87461712
  Ewald energy   TEWEN  =    101520.67694717
  -Hartree energ DENC   =   -113807.30043879
  -exchange      EXHF   =         0.00000000
  -V(xc)+E(xc)   XCENC  =        69.44694116
  PAW double counting   =     11288.27476651   -10829.50941267
  entropy T*S    EENTRO =        -0.01647114
  eigenvalues    EBANDS =      -581.00172438
  atomic energy  EATOM  =     11890.63736546
  Solvation  Ediel_sol  =         0.00000000
  ---------------------------------------------------
  free energy    TOTEN  =      -123.91740956 eV

  energy without entropy =     -123.90093842  energy(sigma->0) =     -123.91191918


--------------------------------------------------------------------------------------------------------




--------------------------------------- Iteration      1(   5)  ---------------------------------------


     EDDAV:  cpu time   17.9972: real time   18.0011
       DOS:  cpu time    0.0091: real time    0.0091
    CHARGE:  cpu time    0.7182: real time    0.7182
    MIXING:  cpu time    0.0011: real time    0.0011
    --------------------------------------------
      LOOP:  cpu time   18.7255: real time   18.7295

 eigenvalue-minimisations  : 25988
 total energy-change (2. order) :-0.1440627E+00  (-0.1427652E+00)
 number of electron     167.9999976 magnetization 
 augmentation part       47.0255078 magnetization 

 Broyden mixing:
  rms(total) = 0.43312E+01    rms(broyden)= 0.43310E+01
  rms(prec ) = 0.43750E+01
  weight for this iteration     100.00

 Free energy of the ion-electron system (eV)
  ---------------------------------------------------
  alpha Z        PSCENC =       324.87461712
  Ewald energy   TEWEN  =    101520.67694717
  -Hartree energ DENC   =   -113807.30043879
  -exchange      EXHF   =         0.00000000
  -V(xc)+E(xc)   XCENC  =        69.44694116
  PAW double counting   =     11288.27476651   -10829.50941267
  entropy T*S    EENTRO =        -0.01697127
  eigenvalues    EBANDS =      -581.14528698
  atomic energy  EATOM  =     11890.63736546
  Solvation  Ediel_sol  =         0.00000000
  ---------------------------------------------------
  free energy    TOTEN  =      -124.06147229 eV

  energy without entropy =     -124.04450102  energy(sigma->0) =     -124.05581520


--------------------------------------------------------------------------------------------------------




--------------------------------------- Iteration      1(   6)  ---------------------------------------


    POTLOK:  cpu time    0.0237: real time    0.0242
    SETDIJ:  cpu time    0.0035: real time    0.0035
     EDDAV:  cpu time   16.2076: real time   16.2082
       DOS:  cpu time    0.0102: real time    0.0102
    CHARGE:  cpu time    0.7428: real time    0.7429
    MIXING:  cpu time    0.0011: real time    0.0011
    --------------------------------------------
      LOOP:  cpu time   16.9889: real time   16.9899

 eigenvalue-minimisations  : 22780
 total energy-change (2. order) : 0.6289268E+01  (-0.3336482E+01)
 number of electron     167.9999967 magnetization 
 augmentation part       49.9171573 magnetization 

 Broyden mixing:
  rms(total) = 0.32753E+01    rms(broyden)= 0.32752E+01
  rms(prec ) = 0.34014E+01
  weight for this iteration     100.00

 eigenvalues of (default mixing * dielectric matrix)
  average eigenvalue GAMMA=   1.1489
  1.1489

 Free energy of the ion-electron system (eV)
  ---------------------------------------------------
  alpha Z        PSCENC =       324.87461712
  Ewald energy   TEWEN  =    101520.67694717
  -Hartree energ DENC   =   -113594.21590082
  -exchange      EXHF   =         0.00000000
  -V(xc)+E(xc)   XCENC  =        66.23061833
  PAW double counting   =     12554.12298779   -12119.04826938
  entropy T*S    EENTRO =        -0.02556523
  eigenvalues    EBANDS =      -761.02500436
  atomic energy  EATOM  =     11890.63736546
  Solvation  Ediel_sol  =         0.00000000
  ---------------------------------------------------
  free energy    TOTEN  =      -117.77220392 eV

  energy without entropy =     -117.74663869  energy(sigma->0) =     -117.76368217


--------------------------------------------------------------------------------------------------------




--------------------------------------- Iteration      1(   7)  ---------------------------------------


    POTLOK:  cpu time    0.0221: real time    0.0264
    SETDIJ:  cpu time    0.0034: real time    0.0034
     EDDAV:  cpu time   17.0682: real time   17.0689
       DOS:  cpu time    0.0095: real time    0.0095
    CHARGE:  cpu time    0.7181: real time    0.7181
    MIXING:  cpu time    0.0012: real time    0.0012
    --------------------------------------------
      LOOP:  cpu time   17.8224: real time   17.8275

 eigenvalue-minimisations  : 24168
 total energy-change (2. order) :-0.2570918E+02  (-0.1240733E+02)
 number of electron     167.9999985 magnetization 
 augmentation part       48.7334437 magnetization 

 Broyden mixing:
  rms(total) = 0.45983E+01    rms(broyden)= 0.45981E+01
  rms(prec ) = 0.53323E+01
  weight for this iteration     100.00

 eigenvalues of (default mixing * dielectric matrix)
  average eigenvalue GAMMA=   1.0853
  1.9198  0.2508

 Free energy of the ion-electron system (eV)
  ---------------------------------------------------
  alpha Z        PSCENC =       324.87461712
  Ewald energy   TEWEN  =    101520.67694717
  -Hartree energ DENC   =   -113770.25844560
  -exchange      EXHF   =         0.00000000
  -V(xc)+E(xc)   XCENC  =        65.69541307
  PAW double counting   =     13476.55841644   -13050.38981762
  entropy T*S    EENTRO =        -0.00637172
  eigenvalues    EBANDS =      -601.26950429
  atomic energy  EATOM  =     11890.63736546
  Solvation  Ediel_sol  =         0.00000000
  ---------------------------------------------------
  free energy    TOTEN  =      -143.48137996 eV

  energy without entropy =     -143.47500824  energy(sigma->0) =     -143.47925606


--------------------------------------------------------------------------------------------------------




--------------------------------------- Iteration      1(   8)  ---------------------------------------


    POTLOK:  cpu time    0.0229: real time    0.0229
    SETDIJ:  cpu time    0.0034: real time    0.0034
     EDDAV:  cpu time   18.1288: real time   18.1293
       DOS:  cpu time    0.0100: real time    0.0100
    CHARGE:  cpu time    0.7197: real time    0.7197
    MIXING:  cpu time    0.0011: real time    0.0011
    --------------------------------------------
      LOOP:  cpu time   18.8858: real time   18.8864

 eigenvalue-minimisations  : 26048
 total energy-change (2. order) : 0.1303606E+02  (-0.6224416E+01)
 number of electron     167.9999962 magnetization 
 augmentation part       50.3868235 magnetization 

 Broyden mixing:
  rms(total) = 0.34081E+01    rms(broyden)= 0.34079E+01
  rms(prec ) = 0.40951E+01
  weight for this iteration     100.00

 eigenvalues of (default mixing * dielectric matrix)
  average eigenvalue GAMMA=   0.8916
  2.1217  0.2766  0.2766

 Free energy of the ion-electron system (eV)
  ---------------------------------------------------
  alpha Z        PSCENC =       324.87461712
  Ewald energy   TEWEN  =    101520.67694717
  -Hartree energ DENC   =   -113689.96635907
  -exchange      EXHF   =         0.00000000
  -V(xc)+E(xc)   XCENC  =        65.09598249
  PAW double counting   =     14405.07868994   -13989.25267401
  entropy T*S    EENTRO =         0.00878040
  eigenvalues    EBANDS =      -657.59867309
  atomic energy  EATOM  =     11890.63736546
[...]
     21      -4.9970      2.00000
     22      -4.9267      2.00000
     23      -4.8197      2.00000
     24      -4.7087      2.00000
     25      -4.6117      2.00000
     26      -4.5745      2.00000
     27      -4.4654      2.00000
     28      -4.4175      2.00000
     29      -4.3739      2.00000
     30      -4.3594      2.00000
     31      -4.2865      2.00000
     32      -4.2396      2.00000
     33      -4.0518      2.00000
     34      -3.9626      2.00000
     35      -3.9169      2.00000
     36      -3.8053      2.00000
     37      -3.7857      2.00000
     38      -3.7564      2.00000
     39      -3.6733      2.00000
     40      -3.5777      2.00000
     41      -3.5023      2.00000
     42      -3.4185      2.00000
     43      -3.3451      2.00000
     44      -3.3070      2.00000
     45      -3.2401      2.00000
     46      -3.2101      2.00000
     47      -3.0644      2.00000
     48      -3.0320      2.00000
     49      -2.9775      2.00000
     50      -2.9147      2.00000
     51      -2.8728      2.00000
     52      -2.8499      2.00000
     53      -2.8200      2.00000
     54      -2.7275      2.00000
     55      -2.6065      2.00000
     56      -2.5593      2.00000
     57      -2.4652      2.00000
     58      -2.3545      2.00000
     59      -2.2327      2.00000
     60      -2.1851      2.00000
     61      -2.0815      2.00000
     62      -2.0567      2.00000
     63      -1.9301      2.00000
     64      -1.8423      2.00000
     65      -1.7847      2.00000
     66      -1.6998      2.00000
     67      -1.6493      2.00000
     68      -1.5329      2.00000
     69      -1.4956      2.00000
     70      -1.4320      2.00000
     71      -1.3329      2.00000
     72      -1.2885      2.00000
     73      -1.2278      2.00000
     74      -1.1872      2.00000
     75      -1.1347      2.00000
     76      -0.9774      2.00000
     77      -0.8948      2.00000
     78      -0.8260      2.00000
     79      -0.7102      2.00005
     80      -0.5356      2.00426
     81      -0.4844      2.01133
     82      -0.4210      2.03003
     83      -0.2996      2.07020
     84      -0.2377      2.01120
     85      -0.0835      1.16435
     86      -0.0526      0.90413
     87       0.0564      0.15844
     88       0.1297     -0.04298
     89       0.2614     -0.04366
     90       0.7580     -0.00000
     91       0.8964     -0.00000
     92       1.3059     -0.00000
     93       2.0586     -0.00000
     94       2.2096     -0.00000
     95       2.7202     -0.00000
     96       3.0116     -0.00000
     97       3.7880     -0.00000
     98       4.0408     -0.00000
     99       4.3369     -0.00000
    100       4.5092     -0.00000

 k-point    96 :      -0.4375    0.1250    0.0000
  band No.  band energies     occupation 
      1     -13.4822      2.00000
      2      -8.0174      2.00000
      3      -7.5328      2.00000
      4      -7.4547      2.00000
      5      -6.5925      2.00000
      6      -6.5201      2.00000
      7      -6.2502      2.00000
      8      -6.1425      2.00000
      9      -6.0539      2.00000
     10      -5.8711      2.00000
     11      -5.7619      2.00000
     12      -5.6850      2.00000
     13      -5.6183      2.00000
     14      -5.5236      2.00000
     15      -5.4658      2.00000
     16      -5.4400      2.00000
     17      -5.2993      2.00000
     18      -5.2300      2.00000
     19      -5.0835      2.00000
     20      -5.0405      2.00000
     21      -4.9886      2.00000
     22      -4.9486      2.00000
     23      -4.8226      2.00000
     24      -4.7025      2.00000
     25      -4.6367      2.00000
     26      -4.5825      2.00000
     27      -4.4741      2.00000
     28      -4.4471      2.00000
     29      -4.3719      2.00000
     30      -4.3372      2.00000
     31      -4.2854      2.00000
     32      -4.2034      2.00000
     33      -4.0400      2.00000
     34      -3.9902      2.00000
     35      -3.9501      2.00000
     36      -3.8283      2.00000
     37      -3.7689      2.00000
     38      -3.6886      2.00000
     39      -3.6470      2.00000
     40      -3.5779      2.00000
     41      -3.5237      2.00000
     42      -3.4299      2.00000
     43      -3.3449      2.00000
     44      -3.3048      2.00000
     45      -3.2421      2.00000
     46      -3.1666      2.00000
     47      -3.0684      2.00000
     48      -3.0193      2.00000
     49      -2.9600      2.00000
     50      -2.9243      2.00000
     51      -2.8788      2.00000
     52      -2.8323      2.00000
     53      -2.7387      2.00000
     54      -2.7059      2.00000
     55      -2.6659      2.00000
     56      -2.5796      2.00000
     57      -2.4650      2.00000
     58      -2.3074      2.00000
     59      -2.2386      2.00000
     60      -2.1577      2.00000
     61      -2.1035      2.00000
     62      -2.0206      2.00000
     63      -1.9427      2.00000
     64      -1.8588      2.00000
     65      -1.7688      2.00000
     66      -1.6955      2.00000
     67      -1.5861      2.00000
     68      -1.5628      2.00000
     69      -1.5147      2.00000
     70      -1.4485      2.00000
     71      -1.3544      2.00000
     72      -1.2701      2.00000
     73      -1.2305      2.00000
     74      -1.1783      2.00000
     75      -1.1130      2.00000
     76      -1.0199      2.00000
     77      -0.9469      2.00000
     78      -0.8249      2.00000
     79      -0.7415      2.00002
     80      -0.5992      2.00102
     81      -0.4660      2.01548
     82      -0.3342      2.06679
     83      -0.2744      2.05945
     84      -0.2245      1.98140
     85      -0.1000      1.29994
     86      -0.0352      0.75938
     87       0.0248      0.32470
     88       0.1063     -0.00394
     89       0.2685     -0.04045
     90       0.7360     -0.00000
     91       0.9048     -0.00000
     92       1.2948     -0.00000
     93       2.0528     -0.00000
     94       2.1481     -0.00000
     95       2.7227     -0.00000
     96       2.9855     -0.00000
     97       3.6557     -0.00000
     98       3.9797     -0.00000
     99       4.3518     -0.00000
    100       4.4731     -0.00000


--------------------------------------------------------------------------------------------------------


 soft charge-density along one line, spin component           1
         0         1         2         3         4         5         6         7         8         9
 total charge-density along one line
 
 pseudopotential strength for first ion, spin component:           1
 -7.838  -0.005   0.001  -0.013  -0.001  -7.989  -0.005   0.001
 -0.005  -7.822  -0.005  -0.002  -0.003  -0.005  -7.973  -0.005
  0.001  -0.005  -7.837  -0.003  -0.001   0.001  -0.005  -7.988
 -0.013  -0.002  -0.003  -7.829  -0.005  -0.013  -0.002  -0.003
 -0.001  -0.003  -0.001  -0.005  -7.836  -0.001  -0.003  -0.001
 -7.989  -0.005   0.001  -0.013  -0.001  -8.124  -0.005   0.001
 -0.005  -7.973  -0.005  -0.002  -0.003  -0.005  -8.108  -0.005
  0.001  -0.005  -7.988  -0.003  -0.001   0.001  -0.005  -8.123
 -0.013  -0.002  -0.003  -7.980  -0.005  -0.013  -0.002  -0.003
 -0.001  -0.003  -0.001  -0.005  -7.987  -0.001  -0.003  -0.001
  0.000   0.003  -0.002   0.001   0.001   0.000   0.003  -0.002
  0.000   0.004  -0.003   0.002   0.001   0.000   0.004  -0.003
 -0.001  -0.000   0.000  -0.000   0.000  -0.001  -0.000   0.000
 -0.000  -0.000  -0.000  -0.001  -0.000  -0.000  -0.000  -0.000
 -0.000  -0.000   0.000  -0.000  -0.001  -0.000  -0.000   0.000
 -0.001  -0.000   0.000  -0.000   0.000  -0.001  -0.001   0.000
 -0.000  -0.000  -0.000  -0.001   0.000  -0.000  -0.000  -0.000
 -0.000  -0.000   0.000  -0.000  -0.001  -0.000  -0.000   0.000
 total augmentation occupancy for first ion, spin component:           1
  6.084  -0.188  -0.054   0.085  -0.070  -4.067   0.164   0.047  -0.216   0.054   0.030  -0.005  -0.014   0.016  -0.012  -0.001
 -0.188   5.976  -0.133  -0.202   0.195   0.164  -3.765   0.093   0.176  -0.293  -0.043   0.000   0.026   0.006   0.007  -0.002
 -0.054  -0.133   6.163  -0.245  -0.122   0.047   0.093  -4.202   0.219   0.091   0.112  -0.015   0.007  -0.000   0.038   0.000
  0.085  -0.202  -0.245   5.786  -0.157  -0.216   0.176   0.219  -3.664   0.141   0.070  -0.015   0.004   0.044   0.002  -0.000
 -0.070   0.195  -0.122  -0.157   6.191   0.054  -0.293   0.091   0.141  -4.152  -0.033  -0.006   0.001  -0.001  -0.022   0.000
 -4.067   0.164   0.047  -0.216   0.054   3.961  -0.147  -0.042   0.316  -0.043  -0.032   0.010   0.017  -0.012   0.013  -0.000
  0.164  -3.765   0.093   0.176  -0.293  -0.147   3.502  -0.061  -0.157   0.367   0.031   0.005  -0.023  -0.003  -0.005   0.001
  0.047   0.093  -4.202   0.219   0.091  -0.042  -0.061   4.137  -0.199  -0.066  -0.120   0.022  -0.007   0.008  -0.037   0.000
 -0.216   0.176   0.219  -3.664   0.141   0.316  -0.157  -0.199   3.469  -0.130  -0.085   0.029  -0.003  -0.033  -0.001   0.000
  0.054  -0.293   0.091   0.141  -4.152  -0.043   0.367  -0.066  -0.130   4.030   0.031   0.003  -0.002   0.002   0.025  -0.000
  0.030  -0.043   0.112   0.070  -0.033  -0.032   0.031  -0.120  -0.085   0.031   2.972  -0.800   0.005   0.003   0.014  -0.000
 -0.005   0.000  -0.015  -0.015  -0.006   0.010   0.005   0.022   0.029   0.003  -0.800   0.242  -0.000   0.002   0.001   0.000
 -0.014   0.026   0.007   0.004   0.001   0.017  -0.023  -0.007  -0.003  -0.002   0.005  -0.000   0.246   0.003  -0.000  -0.008
  0.016   0.006  -0.000   0.044  -0.001  -0.012  -0.003   0.008  -0.033   0.002   0.003   0.002   0.003   0.235  -0.003  -0.000
 -0.012   0.007   0.038   0.002  -0.022   0.013  -0.005  -0.037  -0.001   0.025   0.014   0.001  -0.000  -0.003   0.250   0.000
 -0.001  -0.002   0.000  -0.000   0.000  -0.000   0.001   0.000   0.000  -0.000  -0.000   0.000  -0.008  -0.000   0.000   0.000
 -0.000  -0.000  -0.001  -0.002   0.000   0.000   0.000  -0.000   0.001  -0.000  -0.000  -0.000  -0.000  -0.008   0.000   0.000
 -0.000  -0.000  -0.000  -0.001  -0.001  -0.000   0.000   0.001   0.000  -0.000  -0.001   0.000   0.000   0.000  -0.008  -0.000


------------------------ aborting loop because EDIFF is reached ----------------------------------------



 DIPCOR: dipole corrections for dipol
 direction  3 min pos    24,
 dipolmoment           0.000000      0.000000     -0.398233 electrons x Angstroem
 Tr[quadrupol]      -938.517142

 energy correction for charged system         0.000000 eV
 dipol+quadrupol energy correction            0.017411 eV
 added-field ion interaction          0.000000 eV  (added to PSCEN)

 
  *************** adding dipol energy to TOTEN NOW **************** 
    CHARGE:  cpu time    0.7274: real time    0.7274
    FORLOC:  cpu time    0.0069: real time    0.0069
    FORNL :  cpu time    3.2416: real time    3.2416
    STRESS:  cpu time    9.7398: real time    9.7399
    FORCOR:  cpu time    0.0291: real time    0.0291
    FORHAR:  cpu time    0.0122: real time    0.0122
    MIXING:  cpu time    0.0041: real time    0.0041
    OFIELD:  cpu time    0.0000: real time    0.0000

  FORCE on cell =-STRESS in cart. coord.  units (eV):
  Direction    XX          YY          ZZ          XY          YZ          ZX
  --------------------------------------------------------------------------------------
  Alpha Z   324.87462   324.87462   324.87462
  Ewald  110398.11128110409.41252************    29.56888    15.15659     6.70325
  Hartree112923.26255112929.08029************    11.44373     1.95979    -0.08749
  E(xc)    -737.32327  -737.26741  -741.33628     0.11878     0.04246     0.03395
  Local  ************************228474.41609   -37.24173   -12.44003    -2.81278
  n-local    46.30626    45.90627    29.99645    -0.00310    -0.40214    -0.30236
  augment   835.76651   835.80844   860.11751    -0.65619    -1.11946    -1.04030
  Kinetic  2385.94366  2384.15657  2448.48156    -3.38318    -3.40566    -2.98925
  Fock        0.00000     0.00000     0.00000     0.00000     0.00000     0.00000
  -------------------------------------------------------------------------------------
  Total      -9.75532   -10.21567    -1.32509    -0.15281    -0.20846    -0.49498
  in kB     -18.96521   -19.86017    -2.57609    -0.29707    -0.40527    -0.96228
  external pressure =      -13.80 kB  Pullay stress =        0.00 kB


 VOLUME and BASIS-vectors are now :
 -----------------------------------------------------------------------------
  energy-cutoff  :      350.00
  volume of cell :      824.13
      direct lattice vectors                 reciprocal lattice vectors
     5.557859300  0.000000000  0.000000000     0.179925390 -0.103879972  0.000000000
     2.778929650  4.813247345  0.000000000     0.000000000  0.207759944  0.000000000
     0.000000000  0.000000000 30.806959674     0.000000000  0.000000000  0.032460198

  length of vectors
     5.557859300  5.557859300 30.806959674     0.207759944  0.207759944  0.032460198


 FORCES acting on ions
    electron-ion (+dipol)            ewald-force                    non-local-force                 convergence-correction
 -----------------------------------------------------------------------------------------------
   0.311E+01 0.104E+01 -.840E+03   -.268E+01 -.915E+00 0.840E+03   -.497E+00 -.160E+00 -.293E+00   -.110E-03 0.469E-04 0.163E-01
   0.791E-01 0.227E+01 -.133E+04   -.342E+00 -.401E+01 0.134E+04   0.221E+00 0.175E+01 -.304E+01   -.964E-05 -.864E-05 -.172E-02
   0.602E+01 -.415E+02 -.347E+03   -.663E+01 0.461E+02 0.350E+03   0.607E+00 -.468E+01 -.278E+01   -.250E-05 -.915E-05 -.434E-03
   0.416E+02 0.256E+02 -.338E+03   -.464E+02 -.285E+02 0.339E+03   0.473E+01 0.293E+01 -.533E+00   0.212E-05 0.296E-05 -.442E-03
   -.392E+02 0.257E+02 -.342E+03   0.437E+02 -.286E+02 0.344E+03   -.450E+01 0.290E+01 -.179E+01   -.709E-05 0.199E-05 -.439E-03
   -.167E+02 -.254E+02 -.333E+03   0.177E+02 0.270E+02 0.334E+03   -.990E+00 -.154E+01 -.546E+00   0.364E-04 0.591E-04 -.313E-03
   -.544E+00 0.117E+01 0.266E+04   0.549E+00 -.117E+01 -.266E+04   0.253E-01 0.180E-01 -.186E+00   -.117E-04 0.201E-03 0.143E-02
   -.321E+01 0.218E+01 0.114E+04   0.337E+01 -.224E+01 -.114E+04   -.114E-01 -.332E-01 -.482E+00   0.195E-03 0.147E-03 0.120E-01
   0.308E+01 -.410E+01 0.115E+04   -.315E+01 0.431E+01 -.115E+04   -.729E-02 -.563E-01 -.146E+00   -.185E-03 0.358E-03 0.118E-01
   -.181E+01 0.548E+00 -.731E+03   0.186E+01 -.653E+00 0.731E+03   -.114E-01 0.121E+00 0.476E+00   -.347E-04 0.175E-04 0.148E-01
   0.130E+01 0.112E+01 -.719E+03   -.130E+01 -.113E+01 0.719E+03   -.171E-01 -.586E-01 0.394E+00   0.428E-04 -.106E-03 0.150E-01
   -.453E+01 0.319E+01 0.115E+04   0.471E+01 -.326E+01 -.115E+04   -.623E-01 -.299E-01 -.434E+00   0.177E-03 -.361E-03 0.119E-01
   -.143E+01 -.193E+01 -.730E+03   0.127E+01 0.205E+01 0.730E+03   0.206E+00 -.107E+00 0.173E+00   0.124E-03 0.145E-04 0.149E-01
   0.341E+01 0.177E+02 -.260E+04   -.356E+01 -.179E+02 0.260E+04   0.401E+00 0.248E+00 -.160E+01   0.737E-04 -.145E-03 0.320E-02
   0.851E+01 -.428E+01 -.259E+04   -.840E+01 0.404E+01 0.259E+04   -.281E+00 0.305E+00 0.114E+01   -.186E-03 0.482E-04 0.419E-02
   -.625E+01 -.189E+01 -.262E+04   0.635E+01 0.209E+01 0.262E+04   -.151E+00 -.300E+00 0.322E+00   0.191E-03 -.213E-04 0.401E-02
   0.160E+01 -.106E+01 -.258E+04   -.189E+01 0.133E+01 0.258E+04   0.282E+00 -.255E+00 0.958E+00   -.185E-03 0.146E-03 0.420E-02
   -.220E+01 -.102E+00 0.296E+04   0.210E+01 0.138E+00 -.296E+04   0.166E+00 -.479E-01 -.543E+00   -.152E-03 -.122E-03 0.153E-02
   0.160E+01 -.529E+00 0.295E+04   -.152E+01 0.571E+00 -.295E+04   -.964E-01 -.463E-01 -.741E+00   0.157E-03 -.142E-03 0.145E-02
   0.522E+01 -.233E+00 0.116E+04   -.538E+01 0.310E+00 -.116E+04   -.177E-01 -.243E-01 -.232E+00   -.173E-03 -.147E-03 0.115E-01
   0.365E+00 -.534E+00 0.295E+04   -.397E+00 0.484E+00 -.295E+04   0.205E-01 0.916E-01 -.728E+00   0.134E-04 0.444E-04 0.157E-02
 -----------------------------------------------------------------------------------------------
   0.530E-02 -.102E+01 0.105E+02   -.806E-13 0.722E-15 -.909E-12   0.111E-01 0.103E+01 -.106E+02   -.435E-04 0.254E-04 0.126E+00
 
 
 POSITION                                       TOTAL-FORCE (eV/Angst)
 -----------------------------------------------------------------------------------
      7.01706      4.01961     16.82989        -0.066294     -0.036543      0.039329
      0.07558      0.08708     21.51154        -0.042863      0.015663      0.020510
      5.52046      1.03687     22.05953        -0.004276     -0.012354      0.005958
      7.48283      4.32725     21.62428        -0.005075     -0.004238      0.017831
      3.73019      4.34396     21.86312         0.005079     -0.010062     -0.030708
      0.61413      0.95947     20.48197        -0.029312      0.007657     -0.008696
      2.80194      0.01901     12.15081         0.029226      0.020081      1.193044
      2.81509      3.22856     14.48986         0.152167     -0.086874     -0.199120
      5.59784      3.22883     14.47469        -0.081916      0.147655     -0.400966
      5.59856      1.60561     16.77358         0.030392      0.015537     -0.233070
      2.80985      1.60013     16.76732        -0.019253     -0.065308      0.002106
      1.42712      0.82077     14.48059         0.117354     -0.100838     -0.208747
      4.20043      4.01872     16.77780         0.046775      0.015013      0.017710
      2.75740      4.76560     19.27079         0.250953      0.052424      0.073985
      5.56913      4.77090     19.06249        -0.173173      0.058626      0.345445
      1.39470      2.36426     19.13278        -0.049339     -0.104501      0.249651
      4.16366      2.38171     19.04874        -0.013976      0.011467     -0.031252
      4.18682      2.42485     12.13498         0.062807     -0.013136     -0.252749
      1.41593      2.42408     12.14869        -0.022858     -0.004074     -0.083113
      4.20723      0.82179     14.47440        -0.173937      0.052214     -0.449815
      0.02614      0.01726     12.15283        -0.012479      0.041591     -0.067335
 -----------------------------------------------------------------------------------
    total drift:                                0.016367      0.006221      0.008031


--------------------------------------------------------------------------------------------------------



  FREE ENERGIE OF THE ION-ELECTRON SYSTEM (eV)
  ---------------------------------------------------
  free  energy   TOTEN  =      -114.79471397 eV

  energy  without entropy=     -114.77093587  energy(sigma->0) =     -114.78678794
 


--------------------------------------------------------------------------------------------------------


    POTLOK:  cpu time    0.0267: real time    0.0267


--------------------------------------------------------------------------------------------------------


     LOOP+:  cpu time  606.1878: real time  606.2904
    4ORBIT:  cpu time    0.0000: real time    0.0000

 total amount of memory used by VASP MPI-rank0   164313. kBytes
=======================================================================

   base      :      30000. kBytes
   nonlr-proj:       2360. kBytes
   fftplans  :       2967. kBytes
   grid      :       6321. kBytes
   one-center:         93. kBytes
   wavefun   :     122572. kBytes
 
  
  
 General timing and accounting informations for this job:
 ========================================================
  
                  Total CPU time used (sec):      613.977
                            User time (sec):      612.443
                          System time (sec):        1.534
                         Elapsed time (sec):      614.302
  
                   Maximum memory used (kb):      209184.
                   Average memory used (kb):           0.
  
                          Minor page faults:        85939
                          Major page faults:           34
                 Voluntary context switches:         1455
