       N       E                     dE             d eps       ncg     rms          rms(c)
DAV:   1     0.101941428349E+04    0.10194E+04   -0.58210E+04 19264   0.103E+03
DAV:   2    -0.296140162208E+02   -0.10490E+04   -0.97535E+03 24008   0.258E+02
DAV:   3    -0.121065635779E+03   -0.91452E+02   -0.84576E+02 22984   0.755E+01
DAV:   4    -0.125438238020E+03   -0.43726E+01   -0.41716E+01 25808   0.167E+01
DAV:   5    -0.125577566894E+03   -0.13933E+00   -0.13816E+00 27048   0.294E+00    0.425E+01
DAV:   6    -0.120040678145E+03    0.55369E+01   -0.32252E+01 22584   0.229E+01    0.347E+01
DAV:   7    -0.171627811979E+03   -0.51587E+02   -0.22917E+02 29004   0.792E+01    0.575E+01
DAV:   8    -0.145498054731E+03    0.26130E+02   -0.10528E+02 27588   0.450E+01    0.454E+01
DAV:   9    -0.134322417598E+03    0.11176E+02   -0.58800E+01 33172   0.456E+01    0.317E+01
DAV:  10    -0.119314119491E+03    0.15008E+02   -0.42005E+01 26948   0.348E+01    0.184E+01
DAV:  11    -0.117245496432E+03    0.20686E+01   -0.24539E+01 27932   0.190E+01    0.143E+01
DAV:  12    -0.116008803705E+03    0.12367E+01   -0.80231E+00 26092   0.104E+01    0.578E+00
DAV:  13    -0.115860123861E+03    0.14868E+00   -0.49590E-01 27036   0.327E+00    0.450E+00
DAV:  14    -0.115811209943E+03    0.48914E-01   -0.10897E-01 22892   0.164E+00    0.405E+00
DAV:  15    -0.115809058102E+03    0.21518E-02   -0.16583E-01 24220   0.169E+00    0.291E+00
DAV:  16    -0.115784571733E+03    0.24486E-01   -0.17525E-01 21652   0.185E+00    0.136E+00
DAV:  17    -0.115763323130E+03    0.21249E-01   -0.60164E-02 23268   0.110E+00    0.883E-01
DAV:  18    -0.115759088271E+03    0.42349E-02   -0.25399E-02 25728   0.618E-01    0.561E-01
DAV:  19    -0.115756344584E+03    0.27437E-02   -0.51007E-03 21124   0.305E-01    0.435E-01
DAV:  20    -0.115754380125E+03    0.19645E-02   -0.36074E-03 26232   0.279E-01    0.304E-01
DAV:  21    -0.115753854579E+03    0.52555E-03   -0.23907E-03 21520   0.223E-01    0.217E-01
DAV:  22    -0.115753686513E+03    0.16807E-03   -0.12427E-03 21716   0.149E-01    0.211E-01
DAV:  23    -0.115753186674E+03    0.49984E-03   -0.69423E-04 24300   0.128E-01    0.115E-01
DAV:  24    -0.115753033238E+03    0.15344E-03   -0.58475E-04 25708   0.989E-02    0.399E-02
DAV:  25    -0.115753048077E+03   -0.14840E-04   -0.75448E-05 18624   0.377E-02    0.273E-02
DAV:  26    -0.115753110690E+03   -0.62612E-04   -0.63912E-05 17420   0.346E-02    0.296E-02
DAV:  27    -0.115753204107E+03   -0.93418E-04   -0.79031E-05 17924   0.416E-02    0.378E-02
DAV:  28    -0.115753332875E+03   -0.12877E-03   -0.69628E-05 14136   0.362E-02    0.182E-02
DAV:  29    -0.115753419824E+03   -0.86949E-04   -0.20133E-05 13228   0.175E-02    0.250E-02
DAV:  30    -0.115753523524E+03   -0.10370E-03   -0.12701E-05 11912   0.141E-02    0.144E-02
DAV:  31    -0.115753598142E+03   -0.74617E-04   -0.44540E-06 11852   0.740E-03    0.105E-02
DAV:  32    -0.115753650460E+03   -0.52318E-04   -0.60963E-06 11316   0.956E-03    0.458E-03
DAV:  33    -0.115753674527E+03   -0.24067E-04   -0.14442E-06 10900   0.465E-03    0.362E-03
DAV:  34    -0.115753682850E+03   -0.83237E-05   -0.50509E-07 10192   0.261E-03
   1 F= -.11575324E+03 E0= -.11574856E+03  d E =-.140199E-01
