 vasp.5.4.4.18Apr17-6-g9f103f2a35 (build Apr 28 2017 10:53:45) complex          
  
 executed on             LinuxIFC date 2019.07.18  16:33:59
 running on   16 total cores
 distrk:  each k-point on   16 cores,    1 groups
 distr:  one band on NCORES_PER_BAND=   4 cores,    4 groups


--------------------------------------------------------------------------------------------------------


 INCAR:
 POTCAR:    PAW_PBE Au 04Oct2007                  
 POTCAR:    PAW_PBE C 08Apr2002                   
 POTCAR:    PAW_PBE H 15Jun2001                   
 POTCAR:    PAW_PBE Ir 06Sep2000                  
 POTCAR:    PAW_PBE Pt 04Feb2005                  
 POTCAR:    PAW_PBE Au 04Oct2007                  
   VRHFIN =Au: s1d10                                                            
   LEXCH  = PE                                                                  
   EATOM  =   926.0867 eV,   68.0654 Ry                                         
                                                                                
   TITEL  = PAW_PBE Au 04Oct2007                                                
   LULTRA =        F    use ultrasoft PP ?                                      
   IUNSCR =        1    unscreen: 0-lin 1-nonlin 2-no                           
   RPACOR =    2.330    partial core radius                                     
   POMASS =  196.966; ZVAL   =   11.000    mass and valenz                      
   RCORE  =    2.500    outmost cutoff radius                                   
   RWIGS  =    2.840; RWIGS  =    1.503    wigner-seitz radius (au A)           
   ENMAX  =  229.943; ENMIN  =  172.457 eV                                      
   ICORE  =        3    local potential                                         
   LCOR   =        T    correct aug charges                                     
   LPAW   =        T    paw PP                                                  
   EAUG   =  356.670                                                            
   DEXC   =    0.000                                                            
   RMAX   =    2.562    core radius for proj-oper                               
   RAUG   =    1.300    factor for augmentation sphere                          
   RDEP   =    2.598    radius for radial grids                                 
   RDEPT  =    2.193    core radius for aug-charge                              
                                                                                
   Atomic configuration                                                         
   16 entries                                                                   
     n  l   j            E        occ.                                          
     1  0  0.50    -80748.5001   2.0000                                         
     2  0  0.50    -14244.7466   2.0000                                         
     2  1  1.50    -12310.9591   6.0000                                         
     3  0  0.50     -3362.1768   2.0000                                         
     3  1  1.50     -2801.5463   6.0000                                         
     3  2  2.50     -2203.8206  10.0000                                         
     4  0  0.50      -729.8168   2.0000                                         
     4  1  1.50      -546.0527   6.0000                                         
     4  2  2.50      -325.7302  10.0000                                         
     4  3  3.50       -81.1472  14.0000                                         
     5  0  0.50      -108.3201   2.0000                                         
     5  1  1.50       -59.7479   6.0000                                         
     5  2  2.50        -6.8783  10.0000                                         
     6  0  0.50        -5.7602   1.0000                                         
     6  1  1.50        -6.8029   0.0000                                         
     5  3  2.50        -1.3606   0.0000                                         
   Description                                                                  
     l       E           TYP  RCUT    TYP  RCUT                                 
     2     -6.8782861     23  2.500                                             
     2     -8.2388687     23  2.500                                             
     0     -5.7601759     23  2.500                                             
     0     -0.8493231     23  2.500                                             
     1     -2.7211652     23  2.500                                             
     1     27.2116520     23  2.500                                             
     3     -1.3605826     23  2.500                                             
  local pseudopotential read in
  partial core-charges read in
  partial kinetic energy density read in
  atomic valenz-charges read in
  non local Contribution for L=           2  read in
    real space projection operators read in
  non local Contribution for L=           2  read in
    real space projection operators read in
  non local Contribution for L=           0  read in
    real space projection operators read in
  non local Contribution for L=           0  read in
    real space projection operators read in
  non local Contribution for L=           1  read in
    real space projection operators read in
  non local Contribution for L=           1  read in
    real space projection operators read in
    PAW grid and wavefunctions read in
 
   number of l-projection  operators is LMAX  =           6
   number of lm-projection operators is LMMAX =          18
 
 POTCAR:    PAW_PBE C 08Apr2002                   
   VRHFIN =C: s2p2                                                              
   LEXCH  = PE                                                                  
   EATOM  =   147.1560 eV,   10.8157 Ry                                         
                                                                                
   TITEL  = PAW_PBE C 08Apr2002                                                 
   LULTRA =        F    use ultrasoft PP ?                                      
   IUNSCR =        1    unscreen: 0-lin 1-nonlin 2-no                           
   RPACOR =    1.200    partial core radius                                     
   POMASS =   12.011; ZVAL   =    4.000    mass and valenz                      
   RCORE  =    1.500    outmost cutoff radius                                   
   RWIGS  =    1.630; RWIGS  =    0.863    wigner-seitz radius (au A)           
   ENMAX  =  400.000; ENMIN  =  300.000 eV                                      
   ICORE  =        2    local potential                                         
   LCOR   =        T    correct aug charges                                     
   LPAW   =        T    paw PP                                                  
   EAUG   =  644.873                                                            
   DEXC   =    0.000                                                            
   RMAX   =    1.529    core radius for proj-oper                               
   RAUG   =    1.300    factor for augmentation sphere                          
   RDEP   =    1.501    radius for radial grids                                 
   RDEPT  =    1.300    core radius for aug-charge                              
                                                                                
   Atomic configuration                                                         
    4 entries                                                                   
     n  l   j            E        occ.                                          
     1  0  0.50      -273.3789   2.0000                                         
     2  0  0.50       -13.7508   2.0000                                         
     2  1  0.50        -5.2854   2.0000                                         
     3  2  1.50        -5.4423   0.0000                                         
   Description                                                                  
     l       E           TYP  RCUT    TYP  RCUT                                 
     0    -13.7508458     23  1.200                                             
     0     -8.2022199     23  1.200                                             
     1     -5.2854383     23  1.500                                             
     1     34.0145650     23  1.500                                             
     2     -5.4423304      7  1.500                                             
  local pseudopotential read in
  partial core-charges read in
  partial kinetic energy density read in
  atomic valenz-charges read in
  non local Contribution for L=           0  read in
    real space projection operators read in
  non local Contribution for L=           0  read in
    real space projection operators read in
  non local Contribution for L=           1  read in
    real space projection operators read in
  non local Contribution for L=           1  read in
    real space projection operators read in
    PAW grid and wavefunctions read in
 
   number of l-projection  operators is LMAX  =           4
   number of lm-projection operators is LMMAX =           8
 
 POTCAR:    PAW_PBE H 15Jun2001                   
   VRHFIN =H: ultrasoft test                                                    
   LEXCH  = PE                                                                  
   EATOM  =    12.4884 eV,    0.9179 Ry                                         
                                                                                
   TITEL  = PAW_PBE H 15Jun2001                                                 
   LULTRA =        F    use ultrasoft PP ?                                      
   IUNSCR =        0    unscreen: 0-lin 1-nonlin 2-no                           
   RPACOR =    0.000    partial core radius                                     
   POMASS =    1.000; ZVAL   =    1.000    mass and valenz                      
   RCORE  =    1.100    outmost cutoff radius                                   
   RWIGS  =    0.700; RWIGS  =    0.370    wigner-seitz radius (au A)           
   ENMAX  =  250.000; ENMIN  =  200.000 eV                                      
   RCLOC  =    0.701    cutoff for local pot                                    
   LCOR   =        T    correct aug charges                                     
   LPAW   =        T    paw PP                                                  
   EAUG   =  400.000                                                            
   RMAX   =    1.123    core radius for proj-oper                               
   RAUG   =    1.200    factor for augmentation sphere                          
   RDEP   =    1.112    radius for radial grids                                 
   RDEPT  =    0.926    core radius for aug-charge                              
                                                                                
   Atomic configuration                                                         
    2 entries                                                                   
     n  l   j            E        occ.                                          
     1  0  0.50        -6.4927   1.0000                                         
     2  1  0.50        -3.4015   0.0000                                         
   Description                                                                  
     l       E           TYP  RCUT    TYP  RCUT                                 
     0     -6.4927494     23  1.100                                             
     0      6.8029130     23  1.100                                             
     1     -4.0817478     23  1.100                                             
  local pseudopotential read in
  atomic valenz-charges read in
  non local Contribution for L=           0  read in
    real space projection operators read in
  non local Contribution for L=           0  read in
    real space projection operators read in
  non local Contribution for L=           1  read in
    real space projection operators read in
    PAW grid and wavefunctions read in
 
   number of l-projection  operators is LMAX  =           3
   number of lm-projection operators is LMMAX =           5
 
 POTCAR:    PAW_PBE Ir 06Sep2000                  
   VRHFIN =Ir: s1d8                                                             
   LEXCH  = PE                                                                  
   EATOM  =   560.1833 eV,   41.1723 Ry                                         
                                                                                
   TITEL  = PAW_PBE Ir 06Sep2000                                                
   LULTRA =        F    use ultrasoft PP ?                                      
   IUNSCR =        1    unscreen: 0-lin 1-nonlin 2-no                           
   RPACOR =    2.250    partial core radius                                     
   POMASS =  192.220; ZVAL   =    9.000    mass and valenz                      
   RCORE  =    2.600    outmost cutoff radius                                   
   RWIGS  =    2.690; RWIGS  =    1.423    wigner-seitz radius (au A)           
   ENMAX  =  210.864; ENMIN  =  158.148 eV                                      
   RCLOC  =    1.857    cutoff for local pot                                    
   LCOR   =        T    correct aug charges                                     
   LPAW   =        T    paw PP                                                  
   EAUG   =  318.962                                                            
   DEXC   =    0.000                                                            
   RMAX   =    2.667    core radius for proj-oper                               
   RAUG   =    1.300    factor for augmentation sphere                          
   RDEP   =    2.748    radius for radial grids                                 
   RDEPT  =    2.300    core radius for aug-charge                              
                                                                                
   Atomic configuration                                                         
   16 entries                                                                   
     n  l   j            E        occ.                                          
     1  0  0.50    -76100.0449   2.0000                                         
     2  0  0.50    -13308.1683   2.0000                                         
     2  1  1.50    -11558.0021   6.0000                                         
     3  0  0.50     -3110.7274   2.0000                                         
     3  1  1.50     -2599.2109   6.0000                                         
     3  2  2.50     -2037.1515  10.0000                                         
     4  0  0.50      -661.6001   2.0000                                         
     4  1  1.50      -493.8981   6.0000                                         
     4  2  2.50      -288.1909  10.0000                                         
     4  3  3.50       -59.5718  14.0000                                         
     5  0  0.50       -95.3879   2.0000                                         
     5  1  1.50       -52.2747   6.0000                                         
     5  2  2.50        -5.4180   8.0000                                         
     6  0  0.50        -5.5479   1.0000                                         
     6  1  1.50        -6.8029   0.0000                                         
     5  3  2.50        -1.3606   0.0000                                         
   Description                                                                  
     l       E           TYP  RCUT    TYP  RCUT                                 
     2     -5.4179967     23  2.600                                             
     2     -6.7785793     23  2.600                                             
     0     -5.5478636     23  2.600                                             
     0      2.2542272     23  2.600                                             
     1     -2.7211652     23  2.600                                             
     1     20.4087390     23  2.600                                             
  local pseudopotential read in
  partial core-charges read in
  partial kinetic energy density read in
  atomic valenz-charges read in
  non local Contribution for L=           2  read in
    real space projection operators read in
  non local Contribution for L=           2  read in
    real space projection operators read in
  non local Contribution for L=           0  read in
    real space projection operators read in
  non local Contribution for L=           0  read in
    real space projection operators read in
  non local Contribution for L=           1  read in
    real space projection operators read in
  non local Contribution for L=           1  read in
    real space projection operators read in
    PAW grid and wavefunctions read in
 
   number of l-projection  operators is LMAX  =           6
   number of lm-projection operators is LMMAX =          18
 
 POTCAR:    PAW_PBE Pt 04Feb2005                  
   VRHFIN =Pt: s1d9                                                             
   LEXCH  = PE                                                                  
   EATOM  =   729.1176 eV,   53.5886 Ry                                         
                                                                                
   TITEL  = PAW_PBE Pt 04Feb2005                                                
   LULTRA =        F    use ultrasoft PP ?                                      
   IUNSCR =        1    unscreen: 0-lin 1-nonlin 2-no                           
   RPACOR =    2.330    partial core radius                                     
   POMASS =  195.080; ZVAL   =   10.000    mass and valenz                      
   RCORE  =    2.600    outmost cutoff radius                                   
   RWIGS  =    2.750; RWIGS  =    1.455    wigner-seitz radius (au A)           
   ENMAX  =  230.283; ENMIN  =  172.712 eV                                      
   ICORE  =        3    local potential                                         
   LCOR   =        T    correct aug charges                                     
   LPAW   =        T    paw PP                                                  
   EAUG   =  358.966                                                            
   DEXC   =    0.000                                                            
   RMAX   =    2.658    core radius for proj-oper                               
   RAUG   =    1.300    factor for augmentation sphere                          
   RDEP   =    2.761    radius for radial grids                                 
   RDEPT  =    2.203    core radius for aug-charge                              
                                                                                
   Atomic configuration                                                         
   16 entries                                                                   
     n  l   j            E        occ.                                          
     1  0  0.50    -78401.1885   2.0000                                         
     2  0  0.50    -13770.7750   2.0000                                         
     2  1  1.50    -11931.0468   6.0000                                         
     3  0  0.50     -3234.7234   2.0000                                         
     3  1  1.50     -2699.2216   6.0000                                         
     3  2  2.50     -2119.5714  10.0000                                         
     4  0  0.50      -695.1528   2.0000                                         
     4  1  1.50      -519.6034   6.0000                                         
     4  2  2.50      -306.6786  10.0000                                         
     4  3  3.50       -70.1041  14.0000                                         
     5  0  0.50      -101.7747   2.0000                                         
     5  1  1.50       -55.9873   6.0000                                         
     5  2  2.50        -6.1423   9.0000                                         
     6  0  0.50        -5.6573   1.0000                                         
     6  1  1.50        -6.8029   0.0000                                         
     5  3  2.50        -1.3606   0.0000                                         
   Description                                                                  
     l       E           TYP  RCUT    TYP  RCUT                                 
     2     -6.1423404     23  2.500                                             
     2     -7.5029230     23  2.500                                             
     0     -5.6573207     23  2.500                                             
     0      0.7416693     23  2.500                                             
     1     -2.7211652     23  2.600                                             
     1     20.4087390     23  2.600                                             
     3     -1.3605826     23  2.500                                             
  local pseudopotential read in
  partial core-charges read in
  partial kinetic energy density read in
  atomic valenz-charges read in
  non local Contribution for L=           2  read in
    real space projection operators read in
  non local Contribution for L=           2  read in
    real space projection operators read in
  non local Contribution for L=           0  read in
    real space projection operators read in
  non local Contribution for L=           0  read in
    real space projection operators read in
  non local Contribution for L=           1  read in
    real space projection operators read in
  non local Contribution for L=           1  read in
    real space projection operators read in
    PAW grid and wavefunctions read in
 
   number of l-projection  operators is LMAX  =           6
   number of lm-projection operators is LMMAX =          18
 
 Optimization of the real space projectors (new method)

 maximal supplied QI-value         = 15.12
 optimisation between [QCUT,QGAM] = [  9.52, 19.05] = [ 25.40,101.61] Ry 
 Optimized for a Real-space Cutoff    1.57 Angstroem

   l    n(q)    QCUT    max X(q) W(low)/X(q) W(high)/X(q)  e(spline) 
   2      8     9.524    60.898    0.38E-03    0.43E-04    0.84E-07
   2      8     9.524    58.894    0.38E-03    0.47E-04    0.88E-07
   0      9     9.524   109.617    0.60E-04    0.64E-04    0.80E-07
   0      9     9.524    75.026    0.59E-04    0.62E-04    0.78E-07
   1      8     9.524    16.344    0.99E-04    0.18E-03    0.87E-07
   1      8     9.524    10.160    0.78E-04    0.15E-03    0.74E-07
 Optimization of the real space projectors (new method)

 maximal supplied QI-value         = 25.13
 optimisation between [QCUT,QGAM] = [  9.55, 19.10] = [ 25.54,102.17] Ry 
 Optimized for a Real-space Cutoff    1.39 Angstroem

   l    n(q)    QCUT    max X(q) W(low)/X(q) W(high)/X(q)  e(spline) 
   0      8     9.551   115.676    0.39E-03    0.54E-03    0.29E-06
   0      8     9.551    87.132    0.39E-03    0.54E-03    0.28E-06
   1      7     9.551     4.429    0.35E-03    0.51E-04    0.29E-06
   1      7     9.551     2.733    0.22E-03    0.42E-04    0.31E-06
 Optimization of the real space projectors (new method)

 maximal supplied QI-value         = 34.20
 optimisation between [QCUT,QGAM] = [  9.58, 19.15] = [ 25.68,102.74] Ry 
 Optimized for a Real-space Cutoff    1.31 Angstroem

   l    n(q)    QCUT    max X(q) W(low)/X(q) W(high)/X(q)  e(spline) 
   0      7     9.577    19.460    0.33E-03    0.12E-03    0.35E-06
   0      7     9.577    12.209    0.33E-03    0.11E-03    0.33E-06
   1      7     9.577     4.655    0.39E-03    0.14E-02    0.33E-06
 Optimization of the real space projectors (new method)

 maximal supplied QI-value         = 14.36
 optimisation between [QCUT,QGAM] = [  9.48, 19.10] = [ 25.16,102.17] Ry 
 Optimized for a Real-space Cutoff    1.57 Angstroem

   l    n(q)    QCUT    max X(q) W(low)/X(q) W(high)/X(q)  e(spline) 
   2      8     9.479   134.116    0.18E-03    0.75E-03    0.26E-06
   2      8     9.479   130.192    0.18E-03    0.75E-03    0.27E-06
   0      9     9.479    60.310    0.39E-03    0.24E-03    0.63E-07
   0      9     9.479    39.218    0.36E-03    0.22E-03    0.59E-07
   1      8     9.479    18.439    0.20E-03    0.15E-03    0.16E-06
   1      8     9.479    12.760    0.16E-03    0.11E-03    0.13E-06
 Optimization of the real space projectors (new method)

 maximal supplied QI-value         = 14.36
 optimisation between [QCUT,QGAM] = [  9.48, 19.10] = [ 25.16,102.17] Ry 
 Optimized for a Real-space Cutoff    1.57 Angstroem

   l    n(q)    QCUT    max X(q) W(low)/X(q) W(high)/X(q)  e(spline) 
   2      8     9.479    66.195    0.35E-03    0.53E-04    0.87E-07
   2      8     9.479    64.643    0.35E-03    0.57E-04    0.91E-07
   0      9     9.479    95.520    0.50E-04    0.62E-04    0.81E-07
   0      9     9.479    63.403    0.49E-04    0.60E-04    0.78E-07
   1      8     9.479    19.961    0.10E-03    0.87E-04    0.11E-06
   1      8     9.479    13.289    0.88E-04    0.71E-04    0.97E-07
  PAW_PBE Au 04Oct2007                  :
 energy of atom  1       EATOM= -926.0867
 kinetic energy error for atom=    0.0152 (will be added to EATOM!!)
  PAW_PBE C 08Apr2002                   :
 energy of atom  2       EATOM= -147.1560
 kinetic energy error for atom=    0.0854 (will be added to EATOM!!)
  PAW_PBE H 15Jun2001                   :
 energy of atom  3       EATOM=  -12.4884
 kinetic energy error for atom=    0.0203 (will be added to EATOM!!)
  PAW_PBE Ir 06Sep2000                  :
 energy of atom  4       EATOM= -560.1833
 kinetic energy error for atom=    0.0056 (will be added to EATOM!!)
  PAW_PBE Pt 04Feb2005                  :
 energy of atom  5       EATOM= -729.1176
 kinetic energy error for atom=    0.0144 (will be added to EATOM!!)
 
 
 POSCAR: Au  C  H Ir Pt                          
  positions in cartesian coordinates
  No initial velocities read in
 exchange correlation table for  LEXCH =        8
   RHO(1)=    0.500       N(1)  =     2000
   RHO(2)=  100.500       N(2)  =     4000
 


--------------------------------------------------------------------------------------------------------


 ion  position               nearest neighbor table
   1  0.336  0.335  0.539-  21 2.78  20 2.78  13 2.78  13 2.78  20 2.78  21 2.78  16 2.80  15 2.80
                            17 2.81   9 2.82  10 2.82   8 2.83
   2  0.996  0.037  0.728-   6 1.10   4 1.10   5 1.10   3 1.10
   3  0.016  0.174  0.705-   2 1.10
   4  0.816  0.162  0.749-   2 1.10
   5  0.963  0.883  0.711-   2 1.10
   6  0.187  0.929  0.748-   2 1.10
   7  0.500  0.000  0.389-  18 2.78  19 2.78  12 2.78  12 2.78  19 2.78  18 2.78  17 2.82  14 2.82
                            16 2.83
   8  0.504  0.502  0.615-   9 2.78  10 2.78  11 2.78  11 2.78  10 2.78   9 2.78  13 2.82  20 2.82
                             1 2.83
   9  0.004  0.502  0.615-   8 2.78  10 2.78  11 2.78  11 2.78  10 2.78   8 2.78   1 2.82  21 2.82
                            13 2.83
  10  0.504  0.002  0.615-   8 2.78   9 2.78  11 2.78  11 2.78   9 2.78   8 2.78  21 2.82   1 2.82
                            20 2.83
  11  0.004  0.002  0.614-   8 2.78   9 2.78  10 2.78  10 2.78   9 2.78   8 2.78  20 2.82  13 2.82
                            21 2.83
  12  0.000  0.000  0.389-   7 2.78  18 2.78  19 2.78  19 2.78  18 2.78   7 2.78  16 2.82  15 2.82
                            17 2.83
  13  0.836  0.335  0.539-  20 2.78  21 2.78   1 2.78   1 2.78  21 2.78  20 2.78  17 2.80  14 2.80
                            16 2.81  11 2.82   8 2.82   9 2.83
  14  0.668  0.667  0.465-  16 2.78  17 2.78  15 2.78  15 2.78  17 2.78  16 2.78  20 2.80  13 2.80
                            21 2.81  19 2.82   7 2.82  18 2.83
  15  0.168  0.667  0.465-  16 2.78  17 2.78  14 2.78  14 2.78  17 2.78  16 2.78  21 2.80   1 2.80
                            20 2.81  18 2.82  12 2.82  19 2.83
  16  0.668  0.167  0.464-  15 2.78  14 2.78  17 2.78  17 2.78  14 2.78  15 2.78   1 2.80  21 2.80
                            13 2.81  12 2.82  18 2.82   7 2.83
  17  0.168  0.167  0.465-  14 2.78  15 2.78  16 2.78  16 2.78  15 2.78  14 2.78  13 2.80  20 2.80
                             1 2.81   7 2.82  19 2.82  12 2.83
  18  0.500  0.500  0.389-   7 2.78  19 2.78  12 2.78  12 2.78  19 2.78   7 2.78  15 2.82  16 2.82
                            14 2.83
  19  0.000  0.500  0.389-  18 2.78   7 2.78  12 2.78  12 2.78   7 2.78  18 2.78  14 2.82  17 2.82
                            15 2.83
  20  0.336  0.835  0.539-  21 2.78  13 2.78   1 2.78   1 2.78  13 2.78  21 2.78  14 2.80  17 2.80
                            15 2.81  11 2.82   8 2.82  10 2.83
  21  0.836  0.835  0.539-  20 2.78   1 2.78  13 2.78  13 2.78   1 2.78  20 2.78  15 2.80  16 2.80
                            14 2.81  10 2.82   9 2.82  11 2.83
 
  LATTYP: Found a hexagonal cell.
 ALAT       =     5.5578593001
 C/A-ratio  =     5.5429542221
  
  Lattice vectors:
  
 A1 = (   2.7789296501,  -4.8132473446,   0.0000000000)
 A2 = (  -5.5578593001,   0.0000000000,   0.0000000000)
 A3 = (   0.0000000000,   0.0000000000, -30.8069596737)


Analysis of symmetry for initial positions (statically):
=====================================================================
 Subroutine PRICEL returns:
 Original cell was already a primitive cell.
 

 Routine SETGRP: Setting up the symmetry group for a 
 hexagonal supercell.


 Subroutine GETGRP returns: Found  1 space group operations
 (whereof  1 operations were pure point group operations)
 out of a pool of 24 trial point group operations.


The static configuration has the point symmetry C_1 .


Analysis of symmetry for dynamics (positions and initial velocities):
=====================================================================
 Subroutine PRICEL returns:
 Original cell was already a primitive cell.
 

 Routine SETGRP: Setting up the symmetry group for a 
 hexagonal supercell.


 Subroutine GETGRP returns: Found  1 space group operations
 (whereof  1 operations were pure point group operations)
 out of a pool of 24 trial point group operations.


The dynamic configuration has the point symmetry C_1 .


 Subroutine INISYM returns: Found  1 space group operations
 (whereof  1 operations are pure point group operations),
 and found     1 'primitive' translations

 
 
 KPOINTS: 0.6.Ir1.Au9                             

Automatic generation of k-mesh.
Space group operators:
 irot       det(A)        alpha          n_x          n_y          n_z        tau_x        tau_y        tau_z
    1     1.000000     0.000001     1.000000     0.000000     0.000000     0.000000     0.000000     0.000000
 
 Subroutine IBZKPT returns following result:
 ===========================================
 
 Found     96 irreducible k-points:
 
 Following reciprocal coordinates:
            Coordinates               Weight
  0.062500  0.062500  0.000000     16.000000
  0.000000  0.062500  0.000000     16.000000
 -0.062500  0.000000  0.000000     16.000000
  0.187500  0.062500  0.000000     16.000000
  0.125000  0.187500  0.000000     16.000000
 -0.062500  0.125000  0.000000     16.000000
  0.125000 -0.062500  0.000000     16.000000
 -0.062500 -0.187500  0.000000     16.000000
 -0.187500 -0.125000  0.000000     16.000000
  0.312500  0.062500  0.000000     16.000000
  0.250000  0.312500  0.000000     16.000000
 -0.062500  0.250000  0.000000     16.000000
  0.250000 -0.062500  0.000000     16.000000
 -0.062500 -0.312500  0.000000     16.000000
 -0.312500 -0.250000  0.000000     16.000000
  0.437500  0.062500  0.000000     16.000000
  0.375000  0.437500  0.000000     16.000000
 -0.062500  0.375000  0.000000     16.000000
  0.375000 -0.062500  0.000000     16.000000
 -0.062500 -0.437500  0.000000     16.000000
 -0.437500 -0.375000  0.000000     16.000000
 -0.437500  0.062500  0.000000     16.000000
  0.500000 -0.437500  0.000000     16.000000
 -0.062500  0.500000  0.000000     16.000000
  0.500000 -0.062500  0.000000     16.000000
 -0.062500  0.437500  0.000000     16.000000
  0.437500  0.500000  0.000000     16.000000
 -0.312500  0.062500  0.000000     16.000000
 -0.375000 -0.312500  0.000000     16.000000
 -0.062500 -0.375000  0.000000     16.000000
 -0.375000 -0.062500  0.000000     16.000000
 -0.062500  0.312500  0.000000     16.000000
  0.312500  0.375000  0.000000     16.000000
 -0.187500  0.062500  0.000000     16.000000
 -0.250000 -0.187500  0.000000     16.000000
 -0.062500 -0.250000  0.000000     16.000000
 -0.250000 -0.062500  0.000000     16.000000
 -0.062500  0.187500  0.000000     16.000000
  0.187500  0.250000  0.000000     16.000000
 -0.062500  0.062500  0.000000     16.000000
 -0.125000 -0.062500  0.000000     16.000000
 -0.062500 -0.125000  0.000000     16.000000
  0.187500  0.187500  0.000000     16.000000
  0.000000  0.187500  0.000000     16.000000
 -0.187500  0.000000  0.000000     16.000000
  0.312500  0.187500  0.000000     16.000000
  0.125000  0.312500  0.000000     16.000000
 -0.187500  0.125000  0.000000     16.000000
  0.125000 -0.187500  0.000000     16.000000
 -0.187500 -0.312500  0.000000     16.000000
 -0.312500 -0.125000  0.000000     16.000000
  0.437500  0.187500  0.000000     16.000000
  0.250000  0.437500  0.000000     16.000000
 -0.187500  0.250000  0.000000     16.000000
  0.250000 -0.187500  0.000000     16.000000
 -0.187500 -0.437500  0.000000     16.000000
 -0.437500 -0.250000  0.000000     16.000000
 -0.437500  0.187500  0.000000     16.000000
  0.375000 -0.437500  0.000000     16.000000
 -0.187500  0.375000  0.000000     16.000000
  0.375000 -0.187500  0.000000     16.000000
 -0.187500  0.437500  0.000000     16.000000
  0.437500 -0.375000  0.000000     16.000000
 -0.312500  0.187500  0.000000     16.000000
  0.500000 -0.312500  0.000000     16.000000
 -0.187500  0.500000  0.000000     16.000000
  0.500000 -0.187500  0.000000     16.000000
 -0.187500  0.312500  0.000000     16.000000
  0.312500  0.500000  0.000000     16.000000
 -0.187500  0.187500  0.000000     16.000000
 -0.375000 -0.187500  0.000000     16.000000
 -0.187500 -0.375000  0.000000     16.000000
  0.312500  0.312500  0.000000     16.000000
  0.000000  0.312500  0.000000     16.000000
 -0.312500  0.000000  0.000000     16.000000
  0.437500  0.312500  0.000000     16.000000
  0.125000  0.437500  0.000000     16.000000
 -0.312500  0.125000  0.000000     16.000000
  0.125000 -0.312500  0.000000     16.000000
 -0.312500 -0.437500  0.000000     16.000000
 -0.437500 -0.125000  0.000000     16.000000
 -0.437500  0.312500  0.000000     16.000000
  0.250000 -0.437500  0.000000     16.000000
 -0.312500  0.250000  0.000000     16.000000
  0.250000 -0.312500  0.000000     16.000000
 -0.312500  0.437500  0.000000     16.000000
  0.437500 -0.250000  0.000000     16.000000
 -0.312500  0.312500  0.000000     16.000000
  0.375000 -0.312500  0.000000     16.000000
 -0.312500  0.375000  0.000000     16.000000
  0.437500  0.437500  0.000000     16.000000
  0.000000  0.437500  0.000000     16.000000
 -0.437500 -0.000000  0.000000     16.000000
 -0.437500  0.437500  0.000000     16.000000
  0.125000 -0.437500  0.000000     16.000000
 -0.437500  0.125000  0.000000     16.000000
 
 Following cartesian coordinates:
            Coordinates               Weight
  0.011245  0.006492  0.000000     16.000000
  0.000000  0.012985  0.000000     16.000000
 -0.011245  0.006492  0.000000     16.000000
  0.033736 -0.006492  0.000000     16.000000
  0.022491  0.025970  0.000000     16.000000
 -0.011245  0.032462  0.000000     16.000000
  0.022491 -0.025970  0.000000     16.000000
 -0.011245 -0.032462  0.000000     16.000000
 -0.033736 -0.006492  0.000000     16.000000
  0.056227 -0.019477  0.000000     16.000000
  0.044981  0.038955  0.000000     16.000000
 -0.011245  0.058432  0.000000     16.000000
  0.044981 -0.038955  0.000000     16.000000
 -0.011245 -0.058432  0.000000     16.000000
 -0.056227 -0.019477  0.000000     16.000000
  0.078717 -0.032462  0.000000     16.000000
  0.067472  0.051940  0.000000     16.000000
 -0.011245  0.084402  0.000000     16.000000
  0.067472 -0.051940  0.000000     16.000000
 -0.011245 -0.084402  0.000000     16.000000
 -0.078717 -0.032462  0.000000     16.000000
 -0.078717  0.058432  0.000000     16.000000
  0.089963 -0.142835  0.000000     16.000000
 -0.011245  0.110372  0.000000     16.000000
  0.089963 -0.064925  0.000000     16.000000
 -0.011245  0.097387  0.000000     16.000000
  0.078717  0.058432  0.000000     16.000000
 -0.056227  0.045447  0.000000     16.000000
 -0.067472 -0.025970  0.000000     16.000000
 -0.011245 -0.071417  0.000000     16.000000
 -0.067472  0.025970  0.000000     16.000000
 -0.011245  0.071417  0.000000     16.000000
  0.056227  0.045447  0.000000     16.000000
 -0.033736  0.032462  0.000000     16.000000
 -0.044981 -0.012985  0.000000     16.000000
 -0.011245 -0.045447  0.000000     16.000000
 -0.044981  0.012985  0.000000     16.000000
 -0.011245  0.045447  0.000000     16.000000
  0.033736  0.032462  0.000000     16.000000
 -0.011245  0.019477  0.000000     16.000000
 -0.022491  0.000000  0.000000     16.000000
 -0.011245 -0.019477  0.000000     16.000000
  0.033736  0.019477  0.000000     16.000000
  0.000000  0.038955  0.000000     16.000000
 -0.033736  0.019477  0.000000     16.000000
  0.056227  0.006492  0.000000     16.000000
  0.022491  0.051940  0.000000     16.000000
 -0.033736  0.045447  0.000000     16.000000
  0.022491 -0.051940  0.000000     16.000000
 -0.033736 -0.045447  0.000000     16.000000
 -0.056227  0.006492  0.000000     16.000000
  0.078717 -0.006492  0.000000     16.000000
  0.044981  0.064925  0.000000     16.000000
 -0.033736  0.071417  0.000000     16.000000
  0.044981 -0.064925  0.000000     16.000000
 -0.033736 -0.071417  0.000000     16.000000
 -0.078717 -0.006492  0.000000     16.000000
 -0.078717  0.084402  0.000000     16.000000
  0.067472 -0.129850  0.000000     16.000000
 -0.033736  0.097387  0.000000     16.000000
  0.067472 -0.077910  0.000000     16.000000
 -0.033736  0.110372  0.000000     16.000000
  0.078717 -0.123357  0.000000     16.000000
 -0.056227  0.071417  0.000000     16.000000
  0.089963 -0.116865  0.000000     16.000000
 -0.033736  0.123357  0.000000     16.000000
  0.089963 -0.090895  0.000000     16.000000
 -0.033736  0.084402  0.000000     16.000000
  0.056227  0.071417  0.000000     16.000000
 -0.033736  0.058432  0.000000     16.000000
 -0.067472  0.000000  0.000000     16.000000
 -0.033736 -0.058432  0.000000     16.000000
  0.056227  0.032462  0.000000     16.000000
  0.000000  0.064925  0.000000     16.000000
 -0.056227  0.032462  0.000000     16.000000
  0.078717  0.019477  0.000000     16.000000
  0.022491  0.077910  0.000000     16.000000
 -0.056227  0.058432  0.000000     16.000000
  0.022491 -0.077910  0.000000     16.000000
 -0.056227 -0.058432  0.000000     16.000000
 -0.078717  0.019477  0.000000     16.000000
 -0.078717  0.110372  0.000000     16.000000
  0.044981 -0.116865  0.000000     16.000000
 -0.056227  0.084402  0.000000     16.000000
  0.044981 -0.090895  0.000000     16.000000
 -0.056227  0.123357  0.000000     16.000000
  0.078717 -0.097387  0.000000     16.000000
 -0.056227  0.097387  0.000000     16.000000
  0.067472 -0.103880  0.000000     16.000000
 -0.056227  0.110372  0.000000     16.000000
  0.078717  0.045447  0.000000     16.000000
  0.000000  0.090895  0.000000     16.000000
 -0.078717  0.045447  0.000000     16.000000
 -0.078717  0.136342  0.000000     16.000000
  0.022491 -0.103880  0.000000     16.000000
 -0.078717  0.071417  0.000000     16.000000
 


--------------------------------------------------------------------------------------------------------




 Dimension of arrays:
   k-points           NKPTS =     96   k-points in BZ     NKDIM =     96   number of bands    NBANDS=    100
   number of dos      NEDOS =    301   number of ions     NIONS =     21
   non local maximal  LDIM  =      6   non local SUM 2l+1 LMDIM =     18
   total plane-waves  NPLWV = 112896
   max r-space proj   IRMAX =   2252   max aug-charges    IRDMAX=  10104
   dimension x,y,z NGX =    28 NGY =   28 NGZ =  144
   dimension x,y,z NGXF=    56 NGYF=   56 NGZF=  288
   support grid    NGXF=    56 NGYF=   56 NGZF=  288
   ions per type =               1   1   4   1  14
   NGX,Y,Z   is equivalent  to a cutoff of   8.38,  8.38,  7.77 a.u.
   NGXF,Y,Z  is equivalent  to a cutoff of  16.75, 16.75, 15.54 a.u.

 SYSTEM =  0.6.Ir1.Au9                             
 POSCAR =  Au  C  H Ir Pt                          

 Startparameter for this run:
   NWRITE =      2    write-flag & timer
   PREC   = normal    normal or accurate (medium, high low for compatibility)
   ISTART =      0    job   : 0-new  1-cont  2-samecut
   ICHARG =      2    charge: 1-file 2-atom 10-const
   ISPIN  =      1    spin polarized calculation?
   LNONCOLLINEAR =      F non collinear calculations
   LSORBIT =      F    spin-orbit coupling
   INIWAV =      1    electr: 0-lowe 1-rand  2-diag
   LASPH  =      F    aspherical Exc in radial PAW
   METAGGA=      F    non-selfconsistent MetaGGA calc.

 Electronic Relaxation 1
   ENCUT  =  350.0 eV  25.72 Ry    5.07 a.u.   8.48  8.48 46.99*2*pi/ulx,y,z
   ENINI  =  350.0     initial cutoff
   ENAUG  =  644.9 eV  augmentation charge cutoff
   NELM   =   1000;   NELMIN=  5; NELMDL= -5     # of ELM steps 
   EDIFF  = 0.1E-04   stopping-criterion for ELM
   LREAL  =      T    real-space projection
   NLSPLINE    = F    spline interpolate recip. space projectors
   LCOMPAT=      F    compatible to vasp.4.4
   GGA_COMPAT  = T    GGA compatible to vasp.4.4-vasp.4.6
   LMAXPAW     = -100 max onsite density
   LMAXMIX     =    2 max onsite mixed and CHGCAR
   VOSKOWN=      0    Vosko Wilk Nusair interpolation
   ROPT   =   -0.00050  -0.00050  -0.00050  -0.00050
   ROPT   =   -0.00050
 Ionic relaxation
   EDIFFG = 0.1E-03   stopping-criterion for IOM
   NSW    =      0    number of steps for IOM
   NBLOCK =      1;   KBLOCK =      1    inner block; outer block 
   IBRION =     -1    ionic relax: 0-MD 1-quasi-New 2-CG
   NFREE  =      0    steps in history (QN), initial steepest desc. (CG)
   ISIF   =      2    stress and relaxation
   IWAVPR =     10    prediction:  0-non 1-charg 2-wave 3-comb
   ISYM   =      2    0-nonsym 1-usesym 2-fastsym
   LCORR  =      T    Harris-Foulkes like correction to forces

   POTIM  = 0.5000    time-step for ionic-motion
   TEIN   =    0.0    initial temperature
   TEBEG  =    0.0;   TEEND  =   0.0 temperature during run
   SMASS  =  -3.00    Nose mass-parameter (am)
   estimated Nose-frequenzy (Omega)   =  0.10E-29 period in steps =****** mass=  -0.706E-27a.u.
   SCALEE = 1.0000    scale energy and forces
   NPACO  =    256;   APACO  = 16.0  distance and # of slots for P.C.
   PSTRESS=    0.0 pullay stress

  Mass of Ions in am
   POMASS = 196.97 12.01  1.00192.22195.08
  Ionic Valenz
   ZVAL   =  11.00  4.00  1.00  9.00 10.00
  Atomic Wigner-Seitz radii
   RWIGS  =  -1.00 -1.00 -1.00 -1.00 -1.00
  virtual crystal weights 
   VCA    =   1.00  1.00  1.00  1.00  1.00
   NELECT =     168.0000    total number of electrons
   NUPDOWN=      -1.0000    fix difference up-down

 DOS related values:
   EMIN   =  10.00;   EMAX   =-10.00  energy-range for DOS
   EFERMI =   0.00
   ISMEAR =     1;   SIGMA  =   0.20  broadening in eV -4-tet -1-fermi 0-gaus

 Electronic relaxation 2 (details)
   IALGO  =     38    algorithm
   LDIAG  =      T    sub-space diagonalisation (order eigenvalues)
   LSUBROT=      F    optimize rotation matrix (better conditioning)
   TURBO    =      0    0=normal 1=particle mesh
   IRESTART =      0    0=no restart 2=restart with 2 vectors
   NREBOOT  =      0    no. of reboots
   NMIN     =      0    reboot dimension
   EREF     =   0.00    reference energy to select bands
   IMIX   =      4    mixing-type and parameters
     AMIX     =   0.40;   BMIX     =  1.00
     AMIX_MAG =   1.60;   BMIX_MAG =  1.00
     AMIN     =   0.10
     WC   =   100.;   INIMIX=   1;  MIXPRE=   1;  MAXMIX= -45

 Intra band minimization:
   WEIMIN = 0.0000     energy-eigenvalue tresh-hold
   EBREAK =  0.25E-07  absolut break condition
   DEPER  =   0.30     relativ break condition  

   TIME   =   0.40     timestep for ELM

  volume/ion in A,a.u.               =      39.24       264.83
  Fermi-wavevector in a.u.,A,eV,Ry     =   0.963488  1.820729 12.630418  0.928310
  Thomas-Fermi vector in A             =   2.093038
 
 Write flags
   LWAVE        =      F    write WAVECAR
   LDOWNSAMPLE  =      F    k-point downsampling of WAVECAR
   LCHARG       =      F    write CHGCAR
   LVTOT        =      F    write LOCPOT, total local potential
   LVHAR        =      F    write LOCPOT, Hartree potential only
   LELF         =      F    write electronic localiz. function (ELF)
   LORBIT       =      0    0 simple, 1 ext, 2 COOP (PROOUT), +10 PAW based schemes


 Dipole corrections
   LMONO  =      F    monopole corrections only (constant potential shift)
   LDIPOL =      F    correct potential (dipole corrections)
   IDIPOL =      3    1-x, 2-y, 3-z, 4-all directions 
   EPSILON=  1.0000000 bulk dielectric constant

 Exchange correlation treatment:
   GGA     =    --    GGA type
   LEXCH   =     8    internal setting for exchange type
   VOSKOWN=      0    Vosko Wilk Nusair interpolation
   LHFCALC =     F    Hartree Fock is set to
   LHFONE  =     F    Hartree Fock one center treatment
   AEXX    =    0.0000 exact exchange contribution

 Linear response parameters
   LEPSILON=     F    determine dielectric tensor
   LRPA    =     F    only Hartree local field effects (RPA)
   LNABLA  =     F    use nabla operator in PAW spheres
   LVEL    =     F    velocity operator in full k-point grid
   LINTERFAST=   F  fast interpolation
   KINTER  =     0    interpolate to denser k-point grid
   CSHIFT  =0.1000    complex shift for real part using Kramers Kronig
   OMEGAMAX=  -1.0    maximum frequency
   DEG_THRESHOLD= 0.2000000E-02 threshold for treating states as degnerate
   RTIME   =   -0.100 relaxation time in fs
  (WPLASMAI=    0.000 imaginary part of plasma frequency in eV, 0.658/RTIME)
   DFIELD  = 0.0000000 0.0000000 0.0000000 field for delta impulse in time
 
 Orbital magnetization related:
   ORBITALMAG=     F  switch on orbital magnetization
   LCHIMAG   =     F  perturbation theory with respect to B field
   DQ        =  0.001000  dq finite difference perturbation B field
   LLRAUG    =     F  two centre corrections for induced B field



--------------------------------------------------------------------------------------------------------


 Static calculation
 charge density and potential will be updated during run
 non-spin polarized calculation
 Variant of blocked Davidson
 Davidson routine will perform the subspace rotation
 perform sub-space diagonalisation
    after iterative eigenvector-optimisation
 modified Broyden-mixing scheme, WC =      100.0
 initial mixing is a Kerker type mixing with AMIX =  0.4000 and BMIX =      1.0000
 Hartree-type preconditioning will be used
 using additional bands           16
 real space projection scheme for non local part
 use partial core corrections
 calculate Harris-corrections to forces 
   (improved forces if not selfconsistent)
 use gradient corrections 
 use of overlap-Matrix (Vanderbilt PP)
 Methfessel and Paxton  Order N= 1 SIGMA  =   0.20


--------------------------------------------------------------------------------------------------------


  energy-cutoff  :      350.00
  volume of cell :      824.13
      direct lattice vectors                 reciprocal lattice vectors
     5.557859300  0.000000000  0.000000000     0.179925390 -0.103879972  0.000000000
     2.778929650  4.813247345  0.000000000     0.000000000  0.207759944  0.000000000
     0.000000000  0.000000000 30.806959674     0.000000000  0.000000000  0.032460198

  length of vectors
     5.557859300  5.557859300 30.806959674     0.207759944  0.207759944  0.032460198


 
 k-points in units of 2pi/SCALE and weight: 0.6.Ir1.Au9                             
   0.01124534  0.00649250  0.00000000       0.010
   0.00000000  0.01298500  0.00000000       0.010
  -0.01124534  0.00649250  0.00000000       0.010
   0.03373601 -0.00649250  0.00000000       0.010
   0.02249067  0.02596999  0.00000000       0.010
  -0.01124534  0.03246249  0.00000000       0.010
   0.02249067 -0.02596999  0.00000000       0.010
  -0.01124534 -0.03246249  0.00000000       0.010
  -0.03373601 -0.00649250  0.00000000       0.010
   0.05622668 -0.01947749  0.00000000       0.010
   0.04498135  0.03895499  0.00000000       0.010
  -0.01124534  0.05843248  0.00000000       0.010
   0.04498135 -0.03895499  0.00000000       0.010
  -0.01124534 -0.05843248  0.00000000       0.010
  -0.05622668 -0.01947749  0.00000000       0.010
   0.07871736 -0.03246249  0.00000000       0.010
   0.06747202  0.05193999  0.00000000       0.010
  -0.01124534  0.08440248  0.00000000       0.010
   0.06747202 -0.05193999  0.00000000       0.010
  -0.01124534 -0.08440248  0.00000000       0.010
  -0.07871736 -0.03246249  0.00000000       0.010
  -0.07871736  0.05843248  0.00000000       0.010
   0.08996269 -0.14283496  0.00000000       0.010
  -0.01124534  0.11037247  0.00000000       0.010
   0.08996269 -0.06492498  0.00000000       0.010
  -0.01124534  0.09738747  0.00000000       0.010
   0.07871736  0.05843248  0.00000000       0.010
  -0.05622668  0.04544749  0.00000000       0.010
  -0.06747202 -0.02596999  0.00000000       0.010
  -0.01124534 -0.07141748  0.00000000       0.010
  -0.06747202  0.02596999  0.00000000       0.010
  -0.01124534  0.07141748  0.00000000       0.010
   0.05622668  0.04544749  0.00000000       0.010
  -0.03373601  0.03246249  0.00000000       0.010
  -0.04498135 -0.01298500  0.00000000       0.010
  -0.01124534 -0.04544749  0.00000000       0.010
  -0.04498135  0.01298500  0.00000000       0.010
  -0.01124534  0.04544749  0.00000000       0.010
   0.03373601  0.03246249  0.00000000       0.010
  -0.01124534  0.01947749  0.00000000       0.010
  -0.02249067  0.00000000  0.00000000       0.010
  -0.01124534 -0.01947749  0.00000000       0.010
   0.03373601  0.01947749  0.00000000       0.010
   0.00000000  0.03895499  0.00000000       0.010
  -0.03373601  0.01947749  0.00000000       0.010
   0.05622668  0.00649250  0.00000000       0.010
   0.02249067  0.05193999  0.00000000       0.010
  -0.03373601  0.04544749  0.00000000       0.010
   0.02249067 -0.05193999  0.00000000       0.010
  -0.03373601 -0.04544749  0.00000000       0.010
  -0.05622668  0.00649250  0.00000000       0.010
   0.07871736 -0.00649250  0.00000000       0.010
   0.04498135  0.06492498  0.00000000       0.010
  -0.03373601  0.07141748  0.00000000       0.010
   0.04498135 -0.06492498  0.00000000       0.010
  -0.03373601 -0.07141748  0.00000000       0.010
  -0.07871736 -0.00649250  0.00000000       0.010
  -0.07871736  0.08440248  0.00000000       0.010
   0.06747202 -0.12984997  0.00000000       0.010
  -0.03373601  0.09738747  0.00000000       0.010
   0.06747202 -0.07790998  0.00000000       0.010
  -0.03373601  0.11037247  0.00000000       0.010
   0.07871736 -0.12335747  0.00000000       0.010
  -0.05622668  0.07141748  0.00000000       0.010
   0.08996269 -0.11686497  0.00000000       0.010
  -0.03373601  0.12335747  0.00000000       0.010
   0.08996269 -0.09089498  0.00000000       0.010
  -0.03373601  0.08440248  0.00000000       0.010
   0.05622668  0.07141748  0.00000000       0.010
  -0.03373601  0.05843248  0.00000000       0.010
  -0.06747202  0.00000000  0.00000000       0.010
  -0.03373601 -0.05843248  0.00000000       0.010
   0.05622668  0.03246249  0.00000000       0.010
   0.00000000  0.06492498  0.00000000       0.010
  -0.05622668  0.03246249  0.00000000       0.010
   0.07871736  0.01947749  0.00000000       0.010
   0.02249067  0.07790998  0.00000000       0.010
  -0.05622668  0.05843248  0.00000000       0.010
   0.02249067 -0.07790998  0.00000000       0.010
  -0.05622668 -0.05843248  0.00000000       0.010
  -0.07871736  0.01947749  0.00000000       0.010
  -0.07871736  0.11037247  0.00000000       0.010
   0.04498135 -0.11686497  0.00000000       0.010
  -0.05622668  0.08440248  0.00000000       0.010
   0.04498135 -0.09089498  0.00000000       0.010
  -0.05622668  0.12335747  0.00000000       0.010
   0.07871736 -0.09738747  0.00000000       0.010
  -0.05622668  0.09738747  0.00000000       0.010
   0.06747202 -0.10387997  0.00000000       0.010
  -0.05622668  0.11037247  0.00000000       0.010
   0.07871736  0.04544749  0.00000000       0.010
   0.00000000  0.09089498  0.00000000       0.010
  -0.07871736  0.04544749  0.00000000       0.010
  -0.07871736  0.13634246  0.00000000       0.010
   0.02249067 -0.10387997  0.00000000       0.010
  -0.07871736  0.07141748  0.00000000       0.010
 
 k-points in reciprocal lattice and weights: 0.6.Ir1.Au9                             
   0.06250000  0.06250000  0.00000000       0.010
   0.00000000  0.06250000  0.00000000       0.010
  -0.06250000  0.00000000  0.00000000       0.010
   0.18750000  0.06250000  0.00000000       0.010
   0.12500000  0.18750000  0.00000000       0.010
  -0.06250000  0.12500000  0.00000000       0.010
   0.12500000 -0.06250000  0.00000000       0.010
  -0.06250000 -0.18750000  0.00000000       0.010
  -0.18750000 -0.12500000  0.00000000       0.010
   0.31250000  0.06250000  0.00000000       0.010
   0.25000000  0.31250000  0.00000000       0.010
  -0.06250000  0.25000000  0.00000000       0.010
   0.25000000 -0.06250000  0.00000000       0.010
  -0.06250000 -0.31250000  0.00000000       0.010
  -0.31250000 -0.25000000  0.00000000       0.010
   0.43750000  0.06250000  0.00000000       0.010
   0.37500000  0.43750000  0.00000000       0.010
  -0.06250000  0.37500000  0.00000000       0.010
   0.37500000 -0.06250000  0.00000000       0.010
  -0.06250000 -0.43750000  0.00000000       0.010
  -0.43750000 -0.37500000  0.00000000       0.010
  -0.43750000  0.06250000  0.00000000       0.010
   0.50000000 -0.43750000  0.00000000       0.010
  -0.06250000  0.50000000  0.00000000       0.010
   0.50000000 -0.06250000  0.00000000       0.010
  -0.06250000  0.43750000  0.00000000       0.010
   0.43750000  0.50000000  0.00000000       0.010
  -0.31250000  0.06250000  0.00000000       0.010
  -0.37500000 -0.31250000  0.00000000       0.010
  -0.06250000 -0.37500000  0.00000000       0.010
  -0.37500000 -0.06250000  0.00000000       0.010
  -0.06250000  0.31250000  0.00000000       0.010
   0.31250000  0.37500000  0.00000000       0.010
  -0.18750000  0.06250000  0.00000000       0.010
  -0.25000000 -0.18750000  0.00000000       0.010
  -0.06250000 -0.25000000  0.00000000       0.010
  -0.25000000 -0.06250000  0.00000000       0.010
  -0.06250000  0.18750000  0.00000000       0.010
   0.18750000  0.25000000  0.00000000       0.010
  -0.06250000  0.06250000  0.00000000       0.010
  -0.12500000 -0.06250000  0.00000000       0.010
  -0.06250000 -0.12500000  0.00000000       0.010
   0.18750000  0.18750000  0.00000000       0.010
   0.00000000  0.18750000  0.00000000       0.010
  -0.18750000  0.00000000  0.00000000       0.010
   0.31250000  0.18750000  0.00000000       0.010
   0.12500000  0.31250000  0.00000000       0.010
  -0.18750000  0.12500000  0.00000000       0.010
   0.12500000 -0.18750000  0.00000000       0.010
  -0.18750000 -0.31250000  0.00000000       0.010
  -0.31250000 -0.12500000  0.00000000       0.010
   0.43750000  0.18750000  0.00000000       0.010
   0.25000000  0.43750000  0.00000000       0.010
  -0.18750000  0.25000000  0.00000000       0.010
   0.25000000 -0.18750000  0.00000000       0.010
  -0.18750000 -0.43750000  0.00000000       0.010
  -0.43750000 -0.25000000  0.00000000       0.010
  -0.43750000  0.18750000  0.00000000       0.010
   0.37500000 -0.43750000  0.00000000       0.010
  -0.18750000  0.37500000  0.00000000       0.010
   0.37500000 -0.18750000  0.00000000       0.010
  -0.18750000  0.43750000  0.00000000       0.010
   0.43750000 -0.37500000  0.00000000       0.010
  -0.31250000  0.18750000  0.00000000       0.010
   0.50000000 -0.31250000  0.00000000       0.010
  -0.18750000  0.50000000  0.00000000       0.010
   0.50000000 -0.18750000  0.00000000       0.010
  -0.18750000  0.31250000  0.00000000       0.010
   0.31250000  0.50000000  0.00000000       0.010
  -0.18750000  0.18750000  0.00000000       0.010
  -0.37500000 -0.18750000  0.00000000       0.010
  -0.18750000 -0.37500000  0.00000000       0.010
   0.31250000  0.31250000  0.00000000       0.010
   0.00000000  0.31250000  0.00000000       0.010
  -0.31250000  0.00000000  0.00000000       0.010
   0.43750000  0.31250000  0.00000000       0.010
   0.12500000  0.43750000  0.00000000       0.010
  -0.31250000  0.12500000  0.00000000       0.010
   0.12500000 -0.31250000  0.00000000       0.010
  -0.31250000 -0.43750000  0.00000000       0.010
  -0.43750000 -0.12500000  0.00000000       0.010
  -0.43750000  0.31250000  0.00000000       0.010
   0.25000000 -0.43750000  0.00000000       0.010
  -0.31250000  0.25000000  0.00000000       0.010
   0.25000000 -0.31250000  0.00000000       0.010
  -0.31250000  0.43750000  0.00000000       0.010
   0.43750000 -0.25000000  0.00000000       0.010
  -0.31250000  0.31250000  0.00000000       0.010
   0.37500000 -0.31250000  0.00000000       0.010
  -0.31250000  0.37500000  0.00000000       0.010
   0.43750000  0.43750000  0.00000000       0.010
   0.00000000  0.43750000  0.00000000       0.010
  -0.43750000 -0.00000000  0.00000000       0.010
  -0.43750000  0.43750000  0.00000000       0.010
   0.12500000 -0.43750000  0.00000000       0.010
  -0.43750000  0.12500000  0.00000000       0.010
 
 position of ions in fractional coordinates (direct lattice) 
   0.33609318  0.33481458  0.53911068
   0.99550926  0.03696884  0.72827728
   0.01634044  0.17407633  0.70461518
   0.81604879  0.16240739  0.74937920
   0.96285306  0.88264740  0.71087912
   0.18662699  0.92942696  0.74768094
   0.50028988  0.00002190  0.38905034
   0.50390390  0.50214636  0.61451928
   0.00405551  0.50215487  0.61457158
   0.50401127  0.00219456  0.61454012
   0.00402264  0.00213146  0.61444686
   0.00028423  0.00010053  0.38902611
   0.83608097  0.33483084  0.53905919
   0.66806793  0.66745004  0.46457432
   0.16808857  0.66740719  0.46450537
   0.66806591  0.16743176  0.46448880
   0.16807858  0.16742507  0.46451346
   0.50030535  0.50016294  0.38904898
   0.00019138  0.50013196  0.38905874
   0.33604234  0.83485930  0.53906407
   0.83607871  0.83485533  0.53906280
 
 position of ions in cartesian coordinates  (Angst):
   2.79838480  1.61154540 16.60836084
   5.63563422  0.17794019 22.43600876
   0.57456373  0.83787242 21.70705139
   4.98680310  0.78170695 23.08609490
   7.80421686  4.24840024 21.90002451
   3.62005867  4.47356184 23.03377650
   2.78060165  0.00010542 11.98545827
   4.19605639  2.41695465 18.93147080
   1.41799302  2.41699558 18.93308201
   2.80732224  0.01056294 18.93211274
   0.02828044  0.01025923 18.92923972
   0.00185911  0.00048388 11.98471168
   5.57729175  1.61162366 16.60677471
   5.56782426  3.21260213 14.31212247
   2.78889022  3.21239588 14.30999807
   4.17829742  0.80589046 14.30948785
   1.39941959  0.80585829 14.31024742
   4.17054439  2.40740796 11.98541613
   1.39089518  2.40725884 11.98571680
   4.18769134  4.01838433 16.60692513
   6.96681206  4.01836522 16.60688593
 


--------------------------------------------------------------------------------------------------------


 k-point  1 :   0.0625 0.0625 0.0000  plane waves:   12325
 k-point  2 :   0.0000 0.0625 0.0000  plane waves:   12325
 k-point  3 :  -0.0625 0.0000 0.0000  plane waves:   12325
 k-point  4 :   0.1875 0.0625 0.0000  plane waves:   12294
 k-point  5 :   0.1250 0.1875 0.0000  plane waves:   12294
 k-point  6 :  -0.0625 0.1250 0.0000  plane waves:   12294
 k-point  7 :   0.1250-0.0625 0.0000  plane waves:   12294
 k-point  8 :  -0.0625-0.1875 0.0000  plane waves:   12294
 k-point  9 :  -0.1875-0.1250 0.0000  plane waves:   12294
 k-point 10 :   0.3125 0.0625 0.0000  plane waves:   12263
 k-point 11 :   0.2500 0.3125 0.0000  plane waves:   12263
 k-point 12 :  -0.0625 0.2500 0.0000  plane waves:   12263
 k-point 13 :   0.2500-0.0625 0.0000  plane waves:   12263
 k-point 14 :  -0.0625-0.3125 0.0000  plane waves:   12263
 k-point 15 :  -0.3125-0.2500 0.0000  plane waves:   12263
 k-point 16 :   0.4375 0.0625 0.0000  plane waves:   12221
 k-point 17 :   0.3750 0.4375 0.0000  plane waves:   12221
 k-point 18 :  -0.0625 0.3750 0.0000  plane waves:   12221
 k-point 19 :   0.3750-0.0625 0.0000  plane waves:   12221
 k-point 20 :  -0.0625-0.4375 0.0000  plane waves:   12221
 k-point 21 :  -0.4375-0.3750 0.0000  plane waves:   12221
 k-point 22 :  -0.4375 0.0625 0.0000  plane waves:   12211
 k-point 23 :   0.5000-0.4375 0.0000  plane waves:   12211
 k-point 24 :  -0.0625 0.5000 0.0000  plane waves:   12211
 k-point 25 :   0.5000-0.0625 0.0000  plane waves:   12211
 k-point 26 :  -0.0625 0.4375 0.0000  plane waves:   12211
 k-point 27 :   0.4375 0.5000 0.0000  plane waves:   12211
 k-point 28 :  -0.3125 0.0625 0.0000  plane waves:   12242
 k-point 29 :  -0.3750-0.3125 0.0000  plane waves:   12242
 k-point 30 :  -0.0625-0.3750 0.0000  plane waves:   12242
 k-point 31 :  -0.3750-0.0625 0.0000  plane waves:   12242
 k-point 32 :  -0.0625 0.3125 0.0000  plane waves:   12242
 k-point 33 :   0.3125 0.3750 0.0000  plane waves:   12242
 k-point 34 :  -0.1875 0.0625 0.0000  plane waves:   12280
 k-point 35 :  -0.2500-0.1875 0.0000  plane waves:   12280
 k-point 36 :  -0.0625-0.2500 0.0000  plane waves:   12280
 k-point 37 :  -0.2500-0.0625 0.0000  plane waves:   12280
 k-point 38 :  -0.0625 0.1875 0.0000  plane waves:   12280
 k-point 39 :   0.1875 0.2500 0.0000  plane waves:   12280
 k-point 40 :  -0.0625 0.0625 0.0000  plane waves:   12329
 k-point 41 :  -0.1250-0.0625 0.0000  plane waves:   12329
 k-point 42 :  -0.0625-0.1250 0.0000  plane waves:   12329
 k-point 43 :   0.1875 0.1875 0.0000  plane waves:   12277
 k-point 44 :   0.0000 0.1875 0.0000  plane waves:   12277
 k-point 45 :  -0.1875 0.0000 0.0000  plane waves:   12277
 k-point 46 :   0.3125 0.1875 0.0000  plane waves:   12288
 k-point 47 :   0.1250 0.3125 0.0000  plane waves:   12288
 k-point 48 :  -0.1875 0.1250 0.0000  plane waves:   12288
 k-point 49 :   0.1250-0.1875 0.0000  plane waves:   12288
 k-point 50 :  -0.1875-0.3125 0.0000  plane waves:   12288
 k-point 51 :  -0.3125-0.1250 0.0000  plane waves:   12288
 k-point 52 :   0.4375 0.1875 0.0000  plane waves:   12234
 k-point 53 :   0.2500 0.4375 0.0000  plane waves:   12234
 k-point 54 :  -0.1875 0.2500 0.0000  plane waves:   12234
 k-point 55 :   0.2500-0.1875 0.0000  plane waves:   12234
 k-point 56 :  -0.1875-0.4375 0.0000  plane waves:   12234
 k-point 57 :  -0.4375-0.2500 0.0000  plane waves:   12234
 k-point 58 :  -0.4375 0.1875 0.0000  plane waves:   12216
 k-point 59 :   0.3750-0.4375 0.0000  plane waves:   12216
 k-point 60 :  -0.1875 0.3750 0.0000  plane waves:   12216
 k-point 61 :   0.3750-0.1875 0.0000  plane waves:   12216
 k-point 62 :  -0.1875 0.4375 0.0000  plane waves:   12216
 k-point 63 :   0.4375-0.3750 0.0000  plane waves:   12216
 k-point 64 :  -0.3125 0.1875 0.0000  plane waves:   12215
 k-point 65 :   0.5000-0.3125 0.0000  plane waves:   12215
 k-point 66 :  -0.1875 0.5000 0.0000  plane waves:   12215
 k-point 67 :   0.5000-0.1875 0.0000  plane waves:   12215
 k-point 68 :  -0.1875 0.3125 0.0000  plane waves:   12215
 k-point 69 :   0.3125 0.5000 0.0000  plane waves:   12215
 k-point 70 :  -0.1875 0.1875 0.0000  plane waves:   12289
 k-point 71 :  -0.3750-0.1875 0.0000  plane waves:   12289
 k-point 72 :  -0.1875-0.3750 0.0000  plane waves:   12289
 k-point 73 :   0.3125 0.3125 0.0000  plane waves:   12275
 k-point 74 :   0.0000 0.3125 0.0000  plane waves:   12275
 k-point 75 :  -0.3125 0.0000 0.0000  plane waves:   12275
 k-point 76 :   0.4375 0.3125 0.0000  plane waves:   12239
 k-point 77 :   0.1250 0.4375 0.0000  plane waves:   12239
 k-point 78 :  -0.3125 0.1250 0.0000  plane waves:   12239
 k-point 79 :   0.1250-0.3125 0.0000  plane waves:   12239
 k-point 80 :  -0.3125-0.4375 0.0000  plane waves:   12239
 k-point 81 :  -0.4375-0.1250 0.0000  plane waves:   12239
 k-point 82 :  -0.4375 0.3125 0.0000  plane waves:   12235
 k-point 83 :   0.2500-0.4375 0.0000  plane waves:   12235
 k-point 84 :  -0.3125 0.2500 0.0000  plane waves:   12235
 k-point 85 :   0.2500-0.3125 0.0000  plane waves:   12235
 k-point 86 :  -0.3125 0.4375 0.0000  plane waves:   12235
 k-point 87 :   0.4375-0.2500 0.0000  plane waves:   12235
 k-point 88 :  -0.3125 0.3125 0.0000  plane waves:   12232
 k-point 89 :   0.3750-0.3125 0.0000  plane waves:   12232
 k-point 90 :  -0.3125 0.3750 0.0000  plane waves:   12232
 k-point 91 :   0.4375 0.4375 0.0000  plane waves:   12200
 k-point 92 :   0.0000 0.4375 0.0000  plane waves:   12200
 k-point 93 :  -0.4375-0.0000 0.0000  plane waves:   12200
 k-point 94 :  -0.4375 0.4375 0.0000  plane waves:   12214
 k-point 95 :   0.1250-0.4375 0.0000  plane waves:   12214
 k-point 96 :  -0.4375 0.1250 0.0000  plane waves:   12214

 maximum and minimum number of plane-waves per node :      3101     2992

 maximum number of plane-waves:     12329
 maximum index in each direction: 
   IXMAX=    8   IYMAX=    8   IZMAX=   46
   IXMIN=   -8   IYMIN=   -8   IZMIN=  -46


 real space projection operators:
  total allocation   :       5080.73 KBytes
  max/ min on nodes  :       1273.55       1267.59


 parallel 3D FFT for wavefunctions:
    minimum data exchange during FFTs selected (reduces bandwidth)
 parallel 3D FFT for charge:
    minimum data exchange during FFTs selected (reduces bandwidth)


 total amount of memory used by VASP MPI-rank0   164311. kBytes
=======================================================================

   base      :      30000. kBytes
   nonlr-proj:       2358. kBytes
   fftplans  :       2967. kBytes
   grid      :       6321. kBytes
   one-center:         93. kBytes
   wavefun   :     122572. kBytes
 
     INWAV:  cpu time    0.0000: real time    0.0000
 Broyden mixing: mesh for mixing (old mesh)
   NGX = 17   NGY = 17   NGZ = 93
  (NGX  = 56   NGY  = 56   NGZ  =288)
  gives a total of  26877 points

 initial charge density was supplied:
 charge density of overlapping atoms calculated
 number of electron     168.0000000 magnetization 
 keeping initial charge density in first step


--------------------------------------------------------------------------------------------------------


 Maximum index for non-local projection operator          538
 Maximum index for augmentation-charges          720 (set IRDMAX)


--------------------------------------------------------------------------------------------------------


 First call to EWALD:  gamma=   0.189
 Maximum number of real-space cells 5x 5x 1
 Maximum number of reciprocal cells 2x 2x 8

    FEWALD:  cpu time    0.0013: real time    0.0013


--------------------------------------- Iteration      1(   1)  ---------------------------------------


    POTLOK:  cpu time    0.0257: real time    0.0313
    SETDIJ:  cpu time    0.0034: real time    0.0034
     EDDAV:  cpu time   13.6047: real time   13.6399
       DOS:  cpu time    0.0076: real time    0.0077
    --------------------------------------------
      LOOP:  cpu time   13.6415: real time   13.6823

 eigenvalue-minimisations  : 19264
 total energy-change (2. order) : 0.1019414E+04  (-0.5821022E+04)
 number of electron     168.0000000 magnetization 
 augmentation part      168.0000000 magnetization 

 Free energy of the ion-electron system (eV)
  ---------------------------------------------------
  alpha Z        PSCENC =       324.87461712
  Ewald energy   TEWEN  =     99181.02232704
  -Hartree energ DENC   =   -111470.49159739
  -exchange      EXHF   =         0.00000000
  -V(xc)+E(xc)   XCENC  =        68.45856738
  PAW double counting   =     11288.27476651   -10829.50941267
  entropy T*S    EENTRO =         0.00605783
  eigenvalues    EBANDS =       566.14159220
  atomic energy  EATOM  =     11890.63736546
  Solvation  Ediel_sol  =         0.00000000
  ---------------------------------------------------
  free energy    TOTEN  =      1019.41428349 eV

  energy without entropy =     1019.40822565  energy(sigma->0) =     1019.41226421


--------------------------------------------------------------------------------------------------------




--------------------------------------- Iteration      1(   2)  ---------------------------------------


     EDDAV:  cpu time   16.1573: real time   16.1967
       DOS:  cpu time    0.0083: real time    0.0084
    --------------------------------------------
      LOOP:  cpu time   16.1656: real time   16.2051

 eigenvalue-minimisations  : 24008
 total energy-change (2. order) :-0.1049028E+04  (-0.9753451E+03)
 number of electron     168.0000000 magnetization 
 augmentation part      168.0000000 magnetization 

 Free energy of the ion-electron system (eV)
  ---------------------------------------------------
  alpha Z        PSCENC =       324.87461712
  Ewald energy   TEWEN  =     99181.02232704
  -Hartree energ DENC   =   -111470.49159739
  -exchange      EXHF   =         0.00000000
  -V(xc)+E(xc)   XCENC  =        68.45856738
  PAW double counting   =     11288.27476651   -10829.50941267
  entropy T*S    EENTRO =         0.00523514
  eigenvalues    EBANDS =      -482.88588481
  atomic energy  EATOM  =     11890.63736546
  Solvation  Ediel_sol  =         0.00000000
  ---------------------------------------------------
  free energy    TOTEN  =       -29.61401622 eV

  energy without entropy =      -29.61925136  energy(sigma->0) =      -29.61576127


--------------------------------------------------------------------------------------------------------




--------------------------------------- Iteration      1(   3)  ---------------------------------------


     EDDAV:  cpu time   15.6134: real time   15.6513
       DOS:  cpu time    0.0086: real time    0.0087
    --------------------------------------------
      LOOP:  cpu time   15.6220: real time   15.6599

 eigenvalue-minimisations  : 22984
 total energy-change (2. order) :-0.9145162E+02  (-0.8457571E+02)
 number of electron     168.0000000 magnetization 
 augmentation part      168.0000000 magnetization 

 Free energy of the ion-electron system (eV)
  ---------------------------------------------------
  alpha Z        PSCENC =       324.87461712
  Ewald energy   TEWEN  =     99181.02232704
  -Hartree energ DENC   =   -111470.49159739
  -exchange      EXHF   =         0.00000000
  -V(xc)+E(xc)   XCENC  =        68.45856738
  PAW double counting   =     11288.27476651   -10829.50941267
  entropy T*S    EENTRO =        -0.00716483
  eigenvalues    EBANDS =      -574.32510439
  atomic energy  EATOM  =     11890.63736546
  Solvation  Ediel_sol  =         0.00000000
  ---------------------------------------------------
  free energy    TOTEN  =      -121.06563578 eV

  energy without entropy =     -121.05847094  energy(sigma->0) =     -121.06324750


--------------------------------------------------------------------------------------------------------




--------------------------------------- Iteration      1(   4)  ---------------------------------------


     EDDAV:  cpu time   17.0855: real time   17.1480
       DOS:  cpu time    0.0087: real time    0.0087
    --------------------------------------------
      LOOP:  cpu time   17.0941: real time   17.1566

 eigenvalue-minimisations  : 25808
 total energy-change (2. order) :-0.4372602E+01  (-0.4171615E+01)
 number of electron     168.0000000 magnetization 
 augmentation part      168.0000000 magnetization 

 Free energy of the ion-electron system (eV)
  ---------------------------------------------------
  alpha Z        PSCENC =       324.87461712
  Ewald energy   TEWEN  =     99181.02232704
  -Hartree energ DENC   =   -111470.49159739
  -exchange      EXHF   =         0.00000000
  -V(xc)+E(xc)   XCENC  =        68.45856738
  PAW double counting   =     11288.27476651   -10829.50941267
  entropy T*S    EENTRO =        -0.00731923
  eigenvalues    EBANDS =      -578.69755224
  atomic energy  EATOM  =     11890.63736546
  Solvation  Ediel_sol  =         0.00000000
  ---------------------------------------------------
  free energy    TOTEN  =      -125.43823802 eV

  energy without entropy =     -125.43091879  energy(sigma->0) =     -125.43579828


--------------------------------------------------------------------------------------------------------




--------------------------------------- Iteration      1(   5)  ---------------------------------------


     EDDAV:  cpu time   17.7577: real time   17.8134
       DOS:  cpu time    0.0087: real time    0.0088
    CHARGE:  cpu time    0.7085: real time    0.7103
    MIXING:  cpu time    0.0010: real time    0.0010
    --------------------------------------------
      LOOP:  cpu time   18.4760: real time   18.5335

 eigenvalue-minimisations  : 27048
 total energy-change (2. order) :-0.1393289E+00  (-0.1381630E+00)
 number of electron     168.0000099 magnetization 
 augmentation part       47.1466609 magnetization 

 Broyden mixing:
  rms(total) = 0.42499E+01    rms(broyden)= 0.42497E+01
  rms(prec ) = 0.42922E+01
  weight for this iteration     100.00

 Free energy of the ion-electron system (eV)
  ---------------------------------------------------
  alpha Z        PSCENC =       324.87461712
  Ewald energy   TEWEN  =     99181.02232704
  -Hartree energ DENC   =   -111470.49159739
  -exchange      EXHF   =         0.00000000
  -V(xc)+E(xc)   XCENC  =        68.45856738
  PAW double counting   =     11288.27476651   -10829.50941267
  entropy T*S    EENTRO =        -0.00759818
  eigenvalues    EBANDS =      -578.83660216
  atomic energy  EATOM  =     11890.63736546
  Solvation  Ediel_sol  =         0.00000000
  ---------------------------------------------------
  free energy    TOTEN  =      -125.57756689 eV

  energy without entropy =     -125.56996871  energy(sigma->0) =     -125.57503417


--------------------------------------------------------------------------------------------------------




--------------------------------------- Iteration      1(   6)  ---------------------------------------


    POTLOK:  cpu time    0.0233: real time    0.0236
    SETDIJ:  cpu time    0.0034: real time    0.0034
     EDDAV:  cpu time   15.3456: real time   15.3847
       DOS:  cpu time    0.0100: real time    0.0100
    CHARGE:  cpu time    0.7476: real time    0.7493
    MIXING:  cpu time    0.0010: real time    0.0010
    --------------------------------------------
      LOOP:  cpu time   16.1308: real time   16.1720

 eigenvalue-minimisations  : 22584
 total energy-change (2. order) : 0.5536889E+01  (-0.3225184E+01)
 number of electron     168.0000088 magnetization 
 augmentation part       49.7291227 magnetization 

 Broyden mixing:
  rms(total) = 0.34690E+01    rms(broyden)= 0.34689E+01
  rms(prec ) = 0.37861E+01
  weight for this iteration     100.00

 eigenvalues of (default mixing * dielectric matrix)
  average eigenvalue GAMMA=   0.9748
  0.9748

 Free energy of the ion-electron system (eV)
  ---------------------------------------------------
  alpha Z        PSCENC =       324.87461712
  Ewald energy   TEWEN  =     99181.02232704
  -Hartree energ DENC   =   -111276.97690833
  -exchange      EXHF   =         0.00000000
  -V(xc)+E(xc)   XCENC  =        65.45976128
  PAW double counting   =     12548.36133872   -12113.01637660
  entropy T*S    EENTRO =         0.00683586
  eigenvalues    EBANDS =      -740.40963871
  atomic energy  EATOM  =     11890.63736546
  Solvation  Ediel_sol  =         0.00000000
  ---------------------------------------------------
  free energy    TOTEN  =      -120.04067814 eV

  energy without entropy =     -120.04751401  energy(sigma->0) =     -120.04295677


--------------------------------------------------------------------------------------------------------




--------------------------------------- Iteration      1(   7)  ---------------------------------------


    POTLOK:  cpu time    0.0224: real time    0.0226
    SETDIJ:  cpu time    0.0034: real time    0.0034
     EDDAV:  cpu time   18.8094: real time   18.8547
       DOS:  cpu time    0.0091: real time    0.0091
    CHARGE:  cpu time    0.7132: real time    0.7149
    MIXING:  cpu time    0.0010: real time    0.0010
    --------------------------------------------
      LOOP:  cpu time   19.5586: real time   19.6059

 eigenvalue-minimisations  : 29004
 total energy-change (2. order) :-0.5158713E+02  (-0.2291665E+02)
 number of electron     168.0000090 magnetization 
 augmentation part       47.8625500 magnetization 

 Broyden mixing:
  rms(total) = 0.57549E+01    rms(broyden)= 0.57548E+01
  rms(prec ) = 0.73428E+01
  weight for this iteration     100.00

 eigenvalues of (default mixing * dielectric matrix)
  average eigenvalue GAMMA=   0.8902
  1.6176  0.1628

 Free energy of the ion-electron system (eV)
  ---------------------------------------------------
  alpha Z        PSCENC =       324.87461712
  Ewald energy   TEWEN  =     99181.02232704
  -Hartree energ DENC   =   -111365.06767028
  -exchange      EXHF   =         0.00000000
  -V(xc)+E(xc)   XCENC  =        64.99473607
  PAW double counting   =     13178.93914798   -12750.46131928
  entropy T*S    EENTRO =        -0.00989847
  eigenvalues    EBANDS =      -696.55711762
  atomic energy  EATOM  =     11890.63736546
  Solvation  Ediel_sol  =         0.00000000
  ---------------------------------------------------
  free energy    TOTEN  =      -171.62781198 eV

  energy without entropy =     -171.61791351  energy(sigma->0) =     -171.62451249


--------------------------------------------------------------------------------------------------------




--------------------------------------- Iteration      1(   8)  ---------------------------------------


    POTLOK:  cpu time    0.0232: real time    0.0234
    SETDIJ:  cpu time    0.0033: real time    0.0033
     EDDAV:  cpu time   18.0941: real time   18.1413
       DOS:  cpu time    0.0097: real time    0.0097
    CHARGE:  cpu time    0.7106: real time    0.7123
    MIXING:  cpu time    0.0013: real time    0.0013
    --------------------------------------------
      LOOP:  cpu time   18.8421: real time   18.8913

 eigenvalue-minimisations  : 27588
 total energy-change (2. order) : 0.2612976E+02  (-0.1052761E+02)
 number of electron     168.0000114 magnetization 
 augmentation part       49.2842032 magnetization 

 Broyden mixing:
  rms(total) = 0.45359E+01    rms(broyden)= 0.45357E+01
  rms(prec ) = 0.50761E+01
  weight for this iteration     100.00

 eigenvalues of (default mixing * dielectric matrix)
  average eigenvalue GAMMA=   0.8367
  2.0766  0.2167  0.2167

 Free energy of the ion-electron system (eV)
  ---------------------------------------------------
  alpha Z        PSCENC =       324.87461712
  Ewald energy   TEWEN  =     99181.02232704
  -Hartree energ DENC   =   -111412.27388413
  -exchange      EXHF   =         0.00000000
  -V(xc)+E(xc)   XCENC  =        64.38190932
  PAW double counting   =     13983.44355049   -13564.38652473
  entropy T*S    EENTRO =        -0.01047565
  eigenvalues    EBANDS =      -613.18693965
  atomic energy  EATOM  =     11890.63736546
  Solvation  Ediel_sol  =         0.00000000
[...]
     21      -5.2489      2.00000
     22      -5.1554      2.00000
     23      -5.0811      2.00000
     24      -4.9689      2.00000
     25      -4.9185      2.00000
     26      -4.9000      2.00000
     27      -4.8533      2.00000
     28      -4.7949      2.00000
     29      -4.7692      2.00000
     30      -4.6882      2.00000
     31      -4.6536      2.00000
     32      -4.6113      2.00000
     33      -4.5085      2.00000
     34      -4.3857      2.00000
     35      -4.3510      2.00000
     36      -4.2999      2.00000
     37      -4.2423      2.00000
     38      -4.1860      2.00000
     39      -4.0855      2.00000
     40      -4.0453      2.00000
     41      -3.9254      2.00000
     42      -3.8562      2.00000
     43      -3.8373      2.00000
     44      -3.7710      2.00000
     45      -3.7051      2.00000
     46      -3.5754      2.00000
     47      -3.5369      2.00000
     48      -3.5158      2.00000
     49      -3.4584      2.00000
     50      -3.4120      2.00000
     51      -3.3939      2.00000
     52      -3.3681      2.00000
     53      -3.3210      2.00000
     54      -3.2148      2.00000
     55      -3.1225      2.00000
     56      -3.0735      2.00000
     57      -2.9918      2.00000
     58      -2.8250      2.00000
     59      -2.7076      2.00000
     60      -2.6572      2.00000
     61      -2.6049      2.00000
     62      -2.5422      2.00000
     63      -2.4350      2.00000
     64      -2.3750      2.00000
     65      -2.2067      2.00000
     66      -2.1958      2.00000
     67      -2.1006      2.00000
     68      -2.0597      2.00000
     69      -1.9306      2.00000
     70      -1.8999      2.00000
     71      -1.8391      2.00000
     72      -1.7607      2.00000
     73      -1.7200      2.00000
     74      -1.6428      2.00000
     75      -1.5728      2.00000
     76      -1.5148      2.00000
     77      -1.5084      2.00000
     78      -1.3344      2.00000
     79      -1.1466      2.00076
     80      -1.1166      2.00156
     81      -0.9850      2.02001
     82      -0.8915      2.05867
     83      -0.8068      2.05720
     84      -0.7480      1.94849
     85      -0.6834      1.64672
     86      -0.5494      0.59222
     87      -0.4758      0.14484
     88      -0.3826     -0.06353
     89      -0.2076     -0.01825
     90      -0.1557     -0.00743
     91       0.4279     -0.00000
     92       0.8011     -0.00000
     93       1.7009     -0.00000
     94       1.8098     -0.00000
     95       1.8345     -0.00000
     96       2.5406     -0.00000
     97       3.4459     -0.00000
     98       3.6459     -0.00000
     99       4.1937     -0.00000
    100       4.2338     -0.00000

 k-point    96 :      -0.4375    0.1250    0.0000
  band No.  band energies     occupation 
      1     -12.1865      2.00000
      2      -8.1220      2.00000
      3      -8.0621      2.00000
      4      -7.0581      2.00000
      5      -7.0348      2.00000
      6      -6.6697      2.00000
      7      -6.4039      2.00000
      8      -6.3169      2.00000
      9      -6.2401      2.00000
     10      -6.1913      2.00000
     11      -6.0639      2.00000
     12      -6.0330      2.00000
     13      -5.9748      2.00000
     14      -5.9167      2.00000
     15      -5.7841      2.00000
     16      -5.6108      2.00000
     17      -5.5689      2.00000
     18      -5.5080      2.00000
     19      -5.4748      2.00000
     20      -5.3140      2.00000
     21      -5.2563      2.00000
     22      -5.1424      2.00000
     23      -5.0757      2.00000
     24      -4.9805      2.00000
     25      -4.9178      2.00000
     26      -4.8930      2.00000
     27      -4.8579      2.00000
     28      -4.8004      2.00000
     29      -4.7697      2.00000
     30      -4.6672      2.00000
     31      -4.6542      2.00000
     32      -4.6192      2.00000
     33      -4.4762      2.00000
     34      -4.3855      2.00000
     35      -4.3514      2.00000
     36      -4.3019      2.00000
     37      -4.2475      2.00000
     38      -4.2087      2.00000
     39      -4.0678      2.00000
     40      -4.0603      2.00000
     41      -3.9015      2.00000
     42      -3.8616      2.00000
     43      -3.8474      2.00000
     44      -3.7822      2.00000
     45      -3.7107      2.00000
     46      -3.5628      2.00000
     47      -3.5239      2.00000
     48      -3.5167      2.00000
     49      -3.4481      2.00000
     50      -3.4357      2.00000
     51      -3.4071      2.00000
     52      -3.3695      2.00000
     53      -3.3162      2.00000
     54      -3.2135      2.00000
     55      -3.1419      2.00000
     56      -3.0644      2.00000
     57      -2.9541      2.00000
     58      -2.8570      2.00000
     59      -2.6972      2.00000
     60      -2.6466      2.00000
     61      -2.6124      2.00000
     62      -2.5776      2.00000
     63      -2.4396      2.00000
     64      -2.3546      2.00000
     65      -2.2244      2.00000
     66      -2.2046      2.00000
     67      -2.0916      2.00000
     68      -1.9923      2.00000
     69      -1.9660      2.00000
     70      -1.9101      2.00000
     71      -1.8303      2.00000
     72      -1.7994      2.00000
     73      -1.7267      2.00000
     74      -1.6502      2.00000
     75      -1.5780      2.00000
     76      -1.4965      2.00000
     77      -1.4558      2.00000
     78      -1.3486      2.00000
     79      -1.1693      2.00042
     80      -1.0420      2.00756
     81      -1.0180      2.01168
     82      -0.9290      2.04167
     83      -0.8136      2.06212
     84      -0.7380      1.91513
     85      -0.6574      1.46936
     86      -0.5536      0.62426
     87      -0.5169      0.36438
     88      -0.3438     -0.07013
     89      -0.2045     -0.01738
     90      -0.1637     -0.00863
     91       0.4233     -0.00000
     92       0.8021     -0.00000
     93       1.6956     -0.00000
     94       1.7506     -0.00000
     95       1.8986     -0.00000
     96       2.5368     -0.00000
     97       3.4551     -0.00000
     98       3.6323     -0.00000
     99       4.1717     -0.00000
    100       4.2374     -0.00000


--------------------------------------------------------------------------------------------------------


 soft charge-density along one line, spin component           1
         0         1         2         3         4         5         6         7         8         9
 total charge-density along one line
 
 pseudopotential strength for first ion, spin component:           1
 -8.018   0.001   0.000  -0.006   0.000  -8.165   0.001   0.000
  0.001  -8.001   0.001   0.001  -0.008   0.001  -8.149   0.001
  0.000   0.001  -8.018   0.001  -0.001   0.000   0.001  -8.165
 -0.006   0.001   0.001  -8.000   0.001  -0.006   0.001   0.001
  0.000  -0.008  -0.001   0.001  -8.018   0.000  -0.008  -0.001
 -8.165   0.001   0.000  -0.006   0.000  -8.296   0.001   0.000
  0.001  -8.149   0.001   0.001  -0.008   0.001  -8.280   0.001
  0.000   0.001  -8.165   0.001  -0.001   0.000   0.001  -8.296
 -0.006   0.001   0.001  -8.147   0.001  -0.006   0.001   0.001
  0.000  -0.008  -0.001   0.001  -8.165   0.000  -0.008  -0.001
 -0.000  -0.001  -0.002  -0.000  -0.000  -0.000  -0.001  -0.002
 -0.000  -0.001  -0.002  -0.000  -0.000  -0.000  -0.001  -0.002
  0.000  -0.002   0.000   0.000  -0.000   0.000  -0.002   0.000
  0.000  -0.000  -0.002   0.000   0.000   0.000  -0.000  -0.002
 -0.000   0.000   0.000  -0.002   0.000  -0.000   0.000   0.000
  0.000  -0.002   0.000   0.000  -0.000   0.000  -0.002   0.000
  0.000  -0.000  -0.003   0.000   0.000   0.000  -0.000  -0.003
 -0.000   0.000  -0.000  -0.002   0.000  -0.000   0.000  -0.000
 total augmentation occupancy for first ion, spin component:           1
  6.161   0.005   0.011   0.252   0.012  -4.155  -0.004  -0.007  -0.349  -0.010   0.005  -0.001  -0.000   0.000   0.002   0.000
  0.005   6.233   0.026   0.009   0.216  -0.004  -4.030  -0.019  -0.002  -0.322   0.006  -0.001   0.004   0.001   0.000  -0.001
  0.011   0.026   6.138   0.008  -0.020  -0.007  -0.019  -4.225  -0.003   0.016   0.080  -0.034   0.002   0.020   0.000  -0.000
  0.252   0.009   0.008   6.237   0.006  -0.348  -0.002  -0.003  -4.029  -0.004   0.006  -0.000  -0.000  -0.000   0.004   0.000
  0.012   0.216  -0.020   0.006   6.173  -0.010  -0.322   0.016  -0.004  -4.163   0.005   0.000  -0.000  -0.002   0.000  -0.000
 -4.155  -0.004  -0.007  -0.348  -0.010   4.060   0.002   0.004   0.421   0.008  -0.005   0.001   0.000  -0.000  -0.004   0.000
 -0.004  -4.030  -0.019  -0.002  -0.322   0.002   3.778   0.014  -0.003   0.401  -0.003  -0.001  -0.009  -0.000   0.000   0.001
 -0.007  -0.019  -4.225  -0.003   0.016   0.004   0.014   4.199  -0.002  -0.013  -0.087   0.032  -0.001  -0.020   0.000   0.000
 -0.349  -0.002  -0.003  -4.029  -0.004   0.421  -0.003  -0.002   3.774   0.002  -0.006  -0.000   0.000   0.000  -0.009  -0.000
 -0.010  -0.322   0.016  -0.004  -4.163   0.008   0.401  -0.013   0.002   4.067  -0.003  -0.001  -0.002   0.002  -0.000   0.000
  0.005   0.006   0.080   0.006   0.005  -0.005  -0.003  -0.087  -0.006  -0.003   3.048  -0.840  -0.000  -0.017   0.000   0.000
 -0.001  -0.001  -0.034  -0.000   0.000   0.001  -0.001   0.032  -0.000  -0.001  -0.840   0.254   0.000   0.005  -0.000  -0.000
 -0.000   0.004   0.002  -0.000  -0.000   0.000  -0.009  -0.001   0.000  -0.002  -0.000   0.000   0.248  -0.000  -0.000  -0.008
  0.000   0.001   0.020  -0.000  -0.002  -0.000  -0.000  -0.020   0.000   0.002  -0.017   0.005  -0.000   0.239  -0.000   0.000
  0.002   0.000   0.000   0.004   0.000  -0.004   0.000   0.000  -0.009  -0.000   0.000  -0.000  -0.000  -0.000   0.247   0.000
  0.000  -0.001  -0.000   0.000  -0.000   0.000   0.001   0.000  -0.000   0.000   0.000  -0.000  -0.008   0.000   0.000   0.000
 -0.000  -0.000  -0.002   0.000   0.000  -0.000   0.000   0.001  -0.000  -0.000   0.001  -0.000   0.000  -0.008   0.000   0.000
 -0.000   0.000  -0.000  -0.002   0.000   0.000  -0.000  -0.000   0.001   0.000   0.000  -0.000   0.000   0.000  -0.008   0.000


------------------------ aborting loop because EDIFF is reached ----------------------------------------



 DIPCOR: dipole corrections for dipol
 direction  3 min pos    20,
 dipolmoment           0.000000      0.000000     -0.063740 electrons x Angstroem
 Tr[quadrupol]      -950.964716

 energy correction for charged system         0.000000 eV
 dipol+quadrupol energy correction            0.000446 eV
 added-field ion interaction          0.000000 eV  (added to PSCEN)

 
  *************** adding dipol energy to TOTEN NOW **************** 
    CHARGE:  cpu time    0.7379: real time    0.7397
    FORLOC:  cpu time    0.0069: real time    0.0069
    FORNL :  cpu time    3.1209: real time    3.1284
    STRESS:  cpu time    9.3933: real time    9.4259
    FORCOR:  cpu time    0.0289: real time    0.0289
    FORHAR:  cpu time    0.0123: real time    0.0123
    MIXING:  cpu time    0.0039: real time    0.0039
    OFIELD:  cpu time    0.0000: real time    0.0000

  FORCE on cell =-STRESS in cart. coord.  units (eV):
  Direction    XX          YY          ZZ          XY          YZ          ZX
  --------------------------------------------------------------------------------------
  Alpha Z   324.87462   324.87462   324.87462
  Ewald  108069.40439108072.64460************    -2.69459    -0.77881    -2.95263
  Hartree110523.52825110524.98372************    -0.63481    -0.19428    -0.75687
  E(xc)    -736.90274  -736.91382  -741.57979    -0.01302    -0.01603    -0.01826
  Local  ************************223743.22468     2.79327     0.46430     2.98272
  n-local    42.90705    42.96763    24.45061    -0.15661     0.08160    -0.20485
  augment   834.34679   834.34683   863.25241     0.20259     0.17409     0.30390
  Kinetic  2382.51006  2382.51536  2456.43783     0.46599     0.30647     0.56098
  Fock        0.00000     0.00000     0.00000     0.00000     0.00000     0.00000
  -------------------------------------------------------------------------------------
  Total     -12.15344   -12.11530    -0.82541    -0.03718     0.03734    -0.08501
  in kB     -23.62735   -23.55322    -1.60467    -0.07228     0.07260    -0.16526
  external pressure =      -16.26 kB  Pullay stress =        0.00 kB


 VOLUME and BASIS-vectors are now :
 -----------------------------------------------------------------------------
  energy-cutoff  :      350.00
  volume of cell :      824.13
      direct lattice vectors                 reciprocal lattice vectors
     5.557859300  0.000000000  0.000000000     0.179925390 -0.103879972  0.000000000
     2.778929650  4.813247345  0.000000000     0.000000000  0.207759944  0.000000000
     0.000000000  0.000000000 30.806959674     0.000000000  0.000000000  0.032460198

  length of vectors
     5.557859300  5.557859300 30.806959674     0.207759944  0.207759944  0.032460198


 FORCES acting on ions
    electron-ion (+dipol)            ewald-force                    non-local-force                 convergence-correction
 -----------------------------------------------------------------------------------------------
   0.199E-01 0.260E+00 -.834E+03   -.181E-01 -.245E+00 0.833E+03   -.150E-02 -.416E-02 0.256E+00   0.772E-04 0.293E-03 0.181E-01
   0.192E-01 0.474E-01 -.119E+04   -.875E-02 -.441E-01 0.119E+04   -.122E-01 -.401E-02 -.152E-01   -.271E-04 -.468E-04 -.330E-02
   -.223E+02 -.295E+02 -.283E+03   0.247E+02 0.328E+02 0.280E+03   -.243E+01 -.323E+01 0.355E+01   -.245E-04 -.392E-04 -.110E-02
   0.290E+02 -.270E+02 -.309E+03   -.322E+02 0.300E+02 0.313E+03   0.321E+01 -.298E+01 -.320E+01   -.102E-04 -.109E-05 -.412E-03
   0.273E+02 0.332E+02 -.287E+03   -.303E+02 -.369E+02 0.284E+03   0.300E+01 0.365E+01 0.263E+01   0.131E-04 0.142E-04 -.104E-02
   -.341E+02 0.231E+02 -.308E+03   0.379E+02 -.257E+02 0.311E+03   -.378E+01 0.256E+01 -.295E+01   0.516E-05 -.107E-04 -.446E-03
   -.131E+00 0.825E-01 0.265E+04   0.115E+00 -.740E-01 -.265E+04   0.167E-01 0.245E-01 -.188E+00   -.573E-04 -.759E-04 0.296E-02
   -.383E+01 -.365E+01 -.264E+04   0.402E+01 0.376E+01 0.264E+04   -.696E-01 -.658E-01 0.107E+01   -.159E-03 0.143E-03 0.211E-02
   0.395E+01 -.441E+01 -.264E+04   -.412E+01 0.454E+01 0.264E+04   0.426E-01 -.745E-01 0.101E+01   0.158E-03 -.286E-04 0.213E-02
   -.400E+00 0.627E+01 -.264E+04   0.431E+00 -.647E+01 0.264E+04   -.288E-01 0.741E-01 0.105E+01   -.160E-03 0.345E-04 0.205E-02
   0.784E+00 0.212E+01 -.261E+04   -.773E+00 -.213E+01 0.261E+04   -.123E-01 0.320E-01 0.130E+01   0.156E-03 -.153E-03 0.201E-02
   -.839E-01 -.801E-01 0.294E+04   0.718E-01 0.310E-01 -.294E+04   0.186E-01 0.722E-01 -.628E+00   0.624E-04 -.255E-03 0.281E-02
   0.384E-01 -.626E+00 -.757E+03   -.314E-01 0.598E+00 0.756E+03   -.956E-02 0.635E-01 0.454E+00   -.745E-04 -.323E-03 0.165E-01
   -.199E-01 -.537E+01 0.113E+04   0.135E-01 0.557E+01 -.113E+04   0.244E-02 -.153E-01 -.366E+00   -.216E-03 -.141E-02 0.155E-01
   -.221E-01 -.552E+01 0.113E+04   0.134E-01 0.571E+01 -.113E+04   0.632E-02 -.645E-02 -.306E+00   0.216E-03 -.215E-03 0.146E-01
   -.144E+00 0.542E+01 0.114E+04   0.132E+00 -.563E+01 -.114E+04   -.566E-02 0.194E-01 -.261E+00   0.102E-02 0.929E-03 0.155E-01
   0.601E-01 0.541E+01 0.114E+04   -.507E-01 -.562E+01 -.114E+04   0.648E-02 0.127E-01 -.275E+00   -.102E-02 0.686E-03 0.158E-01
   -.275E+00 -.100E+00 0.294E+04   0.207E+00 0.987E-01 -.294E+04   0.690E-01 -.272E-01 -.746E+00   -.154E-03 0.206E-03 0.274E-02
   0.452E-01 -.138E+00 0.294E+04   -.143E-01 0.131E+00 -.294E+04   -.286E-01 -.247E-01 -.743E+00   0.152E-03 0.131E-03 0.282E-02
   -.749E+00 0.229E+00 -.757E+03   0.708E+00 -.212E+00 0.756E+03   0.647E-01 -.246E-01 0.377E+00   -.516E-03 -.697E-05 0.166E-01
   0.775E+00 0.214E+00 -.757E+03   -.726E+00 -.201E+00 0.756E+03   -.708E-01 -.201E-01 0.384E+00   0.511E-03 0.741E-04 0.165E-01
 -----------------------------------------------------------------------------------------------
   0.963E-02 -.304E-01 -.257E+01   -.531E-13 0.186E-13 0.341E-12   -.111E-01 0.258E-01 0.240E+01   -.469E-04 -.523E-04 0.142E+00
 
 
 POSITION                                       TOTAL-FORCE (eV/Angst)
 -----------------------------------------------------------------------------------
      2.79838      1.61155     16.60836         0.000380      0.011104      0.151668
      5.63563      0.17794     22.43601        -0.001676     -0.000461      0.020326
      0.57456      0.83787     21.70705         0.001299      0.001131      0.022311
      4.98680      0.78171     23.08609        -0.001624     -0.000065      0.023025
      7.80422      4.24840     21.90002        -0.001597     -0.002162      0.019556
      3.62006      4.47356     23.03378        -0.000176     -0.000796      0.023533
      2.78060      0.00011     11.98546         0.000521      0.033087      1.157972
      4.19606      2.41695     18.93147         0.124277      0.047412      0.173714
      1.41799      2.41700     18.93308        -0.124842      0.048904      0.176540
      2.80732      0.01056     18.93211         0.001546     -0.124025      0.175058
      0.02828      0.01026     18.92924        -0.000862      0.025476     -0.034901
      0.00186      0.00048     11.98471         0.006719      0.023050     -0.345804
      5.57729      1.61162     16.60677        -0.002591      0.035316     -0.207314
      5.56782      3.21260     14.31212        -0.004135      0.178712     -0.250638
      2.78889      3.21240     14.31000        -0.002070      0.180558     -0.125346
      4.17830      0.80589     14.30949        -0.015979     -0.190076     -0.456354
      1.39942      0.80586     14.31025         0.014978     -0.194215     -0.455239
      4.17054      2.40741     11.98542         0.001228     -0.028011     -0.057922
      1.39090      2.40726     11.98572         0.002440     -0.031172     -0.056828
      4.18769      4.01838     16.60693         0.023357     -0.007036      0.022421
      6.96681      4.01837     16.60689        -0.021196     -0.006728      0.024220
 -----------------------------------------------------------------------------------
    total drift:                               -0.001562     -0.004654     -0.031316


--------------------------------------------------------------------------------------------------------



  FREE ENERGIE OF THE ION-ELECTRON SYSTEM (eV)
  ---------------------------------------------------
  free  energy   TOTEN  =      -115.75323682 eV

  energy  without entropy=     -115.73921689  energy(sigma->0) =     -115.74856351
 


--------------------------------------------------------------------------------------------------------


    POTLOK:  cpu time    0.0264: real time    0.0265


--------------------------------------------------------------------------------------------------------


     LOOP+:  cpu time  543.5039: real time  545.0406
    4ORBIT:  cpu time    0.0000: real time    0.0000

 total amount of memory used by VASP MPI-rank0   164311. kBytes
=======================================================================

   base      :      30000. kBytes
   nonlr-proj:       2358. kBytes
   fftplans  :       2967. kBytes
   grid      :       6321. kBytes
   one-center:         93. kBytes
   wavefun   :     122572. kBytes
 
  
  
 General timing and accounting informations for this job:
 ========================================================
  
                  Total CPU time used (sec):      551.248
                            User time (sec):      549.481
                          System time (sec):        1.768
                         Elapsed time (sec):      553.091
  
                   Maximum memory used (kb):      207244.
                   Average memory used (kb):           0.
  
                          Minor page faults:        78834
                          Major page faults:            0
                 Voluntary context switches:         1139
