       N       E                     dE             d eps       ncg     rms          rms(c)
DAV:   1     0.102516238286E+04    0.10252E+04   -0.58280E+04 19288   0.103E+03
DAV:   2    -0.292453230003E+02   -0.10544E+04   -0.97916E+03 23920   0.259E+02
DAV:   3    -0.121075963452E+03   -0.91831E+02   -0.84884E+02 22880   0.759E+01
DAV:   4    -0.125529234657E+03   -0.44533E+01   -0.42456E+01 25760   0.169E+01
DAV:   5    -0.125669858961E+03   -0.14062E+00   -0.13928E+00 26960   0.295E+00    0.428E+01
DAV:   6    -0.118714985015E+03    0.69549E+01   -0.31292E+01 21936   0.212E+01    0.319E+01
DAV:   7    -0.142834166113E+03   -0.24119E+02   -0.10957E+02 22740   0.586E+01    0.442E+01
DAV:   8    -0.123085447055E+03    0.19749E+02   -0.44790E+01 23876   0.335E+01    0.247E+01
DAV:   9    -0.127241100608E+03   -0.41557E+01   -0.66193E+01 26932   0.374E+01    0.276E+01
DAV:  10    -0.122898590296E+03    0.43425E+01   -0.40110E+01 26904   0.374E+01    0.254E+01
DAV:  11    -0.117576089387E+03    0.53225E+01   -0.18749E+01 31048   0.229E+01    0.139E+01
DAV:  12    -0.116877887739E+03    0.69820E+00   -0.79903E+00 27532   0.127E+01    0.111E+01
DAV:  13    -0.116097475148E+03    0.78041E+00   -0.36945E+00 27524   0.761E+00    0.581E+00
DAV:  14    -0.115840513734E+03    0.25696E+00   -0.13702E+00 22384   0.539E+00    0.372E+00
DAV:  15    -0.115832168911E+03    0.83448E-02   -0.10101E-01 21672   0.121E+00    0.306E+00
DAV:  16    -0.115817012833E+03    0.15156E-01   -0.28042E-02 24172   0.683E-01    0.241E+00
DAV:  17    -0.115793824652E+03    0.23188E-01   -0.95113E-02 21372   0.140E+00    0.982E-01
DAV:  18    -0.115788720462E+03    0.51042E-02   -0.37593E-02 20696   0.834E-01    0.610E-01
DAV:  19    -0.115786146774E+03    0.25737E-02   -0.96718E-03 26836   0.409E-01    0.405E-01
DAV:  20    -0.115785961454E+03    0.18532E-03   -0.33665E-03 26876   0.247E-01    0.382E-01
DAV:  21    -0.115785826056E+03    0.13540E-03   -0.21810E-03 21200   0.206E-01    0.289E-01
DAV:  22    -0.115785537998E+03    0.28806E-03   -0.32117E-03 24812   0.230E-01    0.268E-01
DAV:  23    -0.115785168521E+03    0.36948E-03   -0.71001E-04 23264   0.105E-01    0.132E-01
DAV:  24    -0.115785110655E+03    0.57866E-04   -0.22904E-04 20380   0.582E-02    0.688E-02
DAV:  25    -0.115785202960E+03   -0.92305E-04   -0.14851E-04 20236   0.539E-02    0.370E-02
DAV:  26    -0.115785283220E+03   -0.80260E-04   -0.84561E-05 19312   0.363E-02    0.283E-02
DAV:  27    -0.115785412304E+03   -0.12908E-03   -0.41005E-05 16212   0.296E-02    0.278E-02
DAV:  28    -0.115785522316E+03   -0.11001E-03   -0.29949E-05 14248   0.203E-02    0.280E-02
DAV:  29    -0.115785614558E+03   -0.92242E-04   -0.11575E-05 12076   0.152E-02    0.185E-02
DAV:  30    -0.115785725695E+03   -0.11114E-03   -0.12102E-05 12664   0.136E-02    0.128E-02
DAV:  31    -0.115785812752E+03   -0.87058E-04   -0.82051E-06 11920   0.115E-02    0.125E-02
DAV:  32    -0.115785851404E+03   -0.38652E-04   -0.24165E-06 11316   0.602E-03    0.121E-02
DAV:  33    -0.115785873739E+03   -0.22335E-04   -0.10814E-06 11128   0.413E-03    0.103E-02
DAV:  34    -0.115785895106E+03   -0.21367E-04   -0.20668E-06 11260   0.543E-03    0.414E-03
DAV:  35    -0.115785908643E+03   -0.13537E-04   -0.72675E-07 10908   0.313E-03    0.307E-03
DAV:  36    -0.115785913675E+03   -0.50321E-05   -0.21925E-07 10416   0.171E-03
   1 F= -.11578304E+03 E0= -.11576969E+03  d E =-.400362E-01
