       N       E                     dE             d eps       ncg     rms          rms(c)
DAV:   1     0.109685666136E+04    0.10969E+04   -0.75161E+04 12576   0.106E+03
DAV:   2    -0.415891785879E+02   -0.11384E+04   -0.10680E+04 14336   0.268E+02
DAV:   3    -0.102884792011E+03   -0.61296E+02   -0.54624E+02 14352   0.569E+01
DAV:   4    -0.104824427433E+03   -0.19396E+01   -0.19120E+01 14544   0.106E+01
DAV:   5    -0.104887264777E+03   -0.62837E-01   -0.62789E-01 15448   0.190E+00    0.288E+01
DAV:   6    -0.106559747551E+03   -0.16725E+01   -0.32238E+01 13240   0.255E+01    0.281E+01
DAV:   7    -0.139098669710E+03   -0.32539E+02   -0.58941E+01 16568   0.783E+01    0.431E+01
DAV:   8    -0.125365940766E+03    0.13733E+02   -0.60556E+01 15984   0.419E+01    0.378E+01
DAV:   9    -0.104359005081E+03    0.21007E+02   -0.32397E+01 14632   0.310E+01    0.205E+01
DAV:  10    -0.104249823478E+03    0.10918E+00   -0.25982E+01 13488   0.250E+01    0.189E+01
DAV:  11    -0.998406933890E+02    0.44091E+01   -0.69957E+00 13264   0.183E+01    0.597E+00
DAV:  12    -0.100028623429E+03   -0.18793E+00   -0.32057E+00 13288   0.103E+01    0.718E+00
DAV:  13    -0.996388105078E+02    0.38981E+00   -0.21270E+00 13192   0.801E+00    0.360E+00
DAV:  14    -0.997799860616E+02   -0.14118E+00   -0.10945E+00 13480   0.542E+00    0.425E+00
DAV:  15    -0.996765043106E+02    0.10348E+00   -0.41939E-01 13080   0.409E+00    0.410E+00
DAV:  16    -0.995732491627E+02    0.10326E+00   -0.22878E-01 13112   0.197E+00    0.121E+00
DAV:  17    -0.995650656120E+02    0.81836E-02   -0.36165E-02 13304   0.104E+00    0.766E-01
DAV:  18    -0.995627053584E+02    0.23603E-02   -0.15826E-02 13488   0.669E-01    0.731E-01
DAV:  19    -0.995595016627E+02    0.32037E-02   -0.82826E-03 13280   0.431E-01    0.278E-01
DAV:  20    -0.995594038972E+02    0.97765E-04   -0.58929E-03 13640   0.341E-01    0.294E-01
DAV:  21    -0.995588469842E+02    0.55691E-03   -0.11597E-03 13336   0.174E-01    0.192E-01
DAV:  22    -0.995584232573E+02    0.42373E-03   -0.10593E-03 13696   0.158E-01    0.637E-02
DAV:  23    -0.995582755748E+02    0.14768E-03   -0.26871E-04 13936   0.728E-02    0.777E-02
DAV:  24    -0.995582300633E+02    0.45511E-04   -0.19574E-04 12920   0.730E-02    0.416E-02
DAV:  25    -0.995583381708E+02   -0.10811E-03   -0.14806E-04 12080   0.638E-02    0.552E-02
DAV:  26    -0.995587404119E+02   -0.40224E-03   -0.15050E-04 12072   0.514E-02    0.277E-02
DAV:  27    -0.995589488741E+02   -0.20846E-03   -0.34422E-05  9264   0.311E-02    0.224E-02
DAV:  28    -0.995592697066E+02   -0.32083E-03   -0.29509E-05  9592   0.251E-02    0.150E-02
DAV:  29    -0.995594936690E+02   -0.22396E-03   -0.13007E-05  8528   0.144E-02    0.111E-02
DAV:  30    -0.995596102207E+02   -0.11655E-03   -0.64659E-06  7864   0.112E-02    0.748E-03
DAV:  31    -0.995597031513E+02   -0.92931E-04   -0.48180E-06  7968   0.854E-03    0.447E-03
DAV:  32    -0.995597647404E+02   -0.61589E-04   -0.22272E-06  7704   0.507E-03    0.439E-03
DAV:  33    -0.995597997087E+02   -0.34968E-04   -0.15502E-06  7608   0.444E-03    0.188E-03
DAV:  34    -0.995598281349E+02   -0.28426E-04   -0.18619E-06  7640   0.378E-03    0.373E-03
DAV:  35    -0.995598379585E+02   -0.98236E-05   -0.64816E-07  7472   0.211E-03
   1 F= -.99559838E+02 E0= -.99435099E+02  d E =-.374216E+00
