       N       E                     dE             d eps       ncg     rms          rms(c)
DAV:   1     0.109840010325E+04    0.10984E+04   -0.75200E+04  4832   0.106E+03
DAV:   2    -0.410850976685E+02   -0.11395E+04   -0.10686E+04  5504   0.268E+02
DAV:   3    -0.102573182211E+03   -0.61488E+02   -0.54717E+02  5552   0.570E+01
DAV:   4    -0.104510770893E+03   -0.19376E+01   -0.19111E+01  5528   0.107E+01
DAV:   5    -0.104575628815E+03   -0.64858E-01   -0.64811E-01  5968   0.194E+00    0.288E+01
DAV:   6    -0.108093065373E+03   -0.35174E+01   -0.35667E+01  5072   0.272E+01    0.297E+01
DAV:   7    -0.132669155860E+03   -0.24576E+02   -0.61318E+01  6440   0.736E+01    0.393E+01
DAV:   8    -0.129161346997E+03    0.35078E+01   -0.62886E+01  6088   0.446E+01    0.404E+01
DAV:   9    -0.106591912626E+03    0.22569E+02   -0.37374E+01  5440   0.307E+01    0.264E+01
DAV:  10    -0.104356769813E+03    0.22351E+01   -0.44881E+01  5104   0.213E+01    0.186E+01
DAV:  11    -0.100545598468E+03    0.38112E+01   -0.80923E+00  5104   0.195E+01    0.125E+01
DAV:  12    -0.100164475125E+03    0.38112E+00   -0.10705E+01  5064   0.133E+01    0.798E+00
DAV:  13    -0.995141283416E+02    0.65035E+00   -0.18022E+00  5072   0.792E+00    0.471E+00
DAV:  14    -0.995246799867E+02   -0.10552E-01   -0.14551E+00  5104   0.598E+00    0.476E+00
DAV:  15    -0.994857420374E+02    0.38938E-01   -0.45542E-01  5000   0.361E+00    0.461E+00
DAV:  16    -0.993970413895E+02    0.88701E-01   -0.57561E-01  5056   0.316E+00    0.234E+00
DAV:  17    -0.993779486983E+02    0.19093E-01   -0.11692E-01  5048   0.199E+00    0.195E+00
DAV:  18    -0.993478511184E+02    0.30098E-01   -0.88412E-02  5024   0.148E+00    0.712E-01
DAV:  19    -0.993432668042E+02    0.45843E-02   -0.12259E-02  5096   0.602E-01    0.428E-01
DAV:  20    -0.993420489275E+02    0.12179E-02   -0.36657E-03  5168   0.372E-01    0.304E-01
DAV:  21    -0.993411069941E+02    0.94193E-03   -0.22736E-03  5272   0.223E-01    0.209E-01
DAV:  22    -0.993408564218E+02    0.25057E-03   -0.10210E-03  5184   0.185E-01    0.180E-01
DAV:  23    -0.993404496490E+02    0.40677E-03   -0.10545E-03  5104   0.173E-01    0.152E-01
DAV:  24    -0.993401964290E+02    0.25322E-03   -0.98608E-04  5200   0.115E-01    0.601E-02
DAV:  25    -0.993404601070E+02   -0.26368E-03   -0.41563E-04  4952   0.866E-02    0.821E-02
DAV:  26    -0.993407269839E+02   -0.26688E-03   -0.27067E-04  4528   0.685E-02    0.438E-02
DAV:  27    -0.993413416858E+02   -0.61470E-03   -0.11144E-04  4728   0.373E-02    0.617E-02
DAV:  28    -0.993414518165E+02   -0.11013E-03   -0.44393E-05  3296   0.285E-02    0.246E-02
DAV:  29    -0.993416148181E+02   -0.16300E-03   -0.15061E-05  3320   0.164E-02    0.129E-02
DAV:  30    -0.993417021253E+02   -0.87307E-04   -0.10372E-05  3048   0.116E-02    0.109E-02
DAV:  31    -0.993417545267E+02   -0.52401E-04   -0.29639E-06  2968   0.624E-03    0.415E-03
DAV:  32    -0.993417892994E+02   -0.34773E-04   -0.13829E-06  2944   0.352E-03    0.666E-03
DAV:  33    -0.993418044128E+02   -0.15113E-04   -0.12492E-06  2936   0.311E-03    0.500E-03
DAV:  34    -0.993418081693E+02   -0.37566E-05   -0.49713E-07  2840   0.234E-03
   1 F= -.99341808E+02 E0= -.99220492E+02  d E =-.363947E+00
