 vasp.5.4.4.18Apr17-6-g9f103f2a35 (build Apr 28 2017 10:53:45) complex          
  
 executed on             LinuxIFC date 2019.05.31  17:26:14
 running on   28 total cores
 distrk:  each k-point on   28 cores,    1 groups
 distr:  one band on NCORES_PER_BAND=   7 cores,    4 groups


--------------------------------------------------------------------------------------------------------


 INCAR:
 POTCAR:    PAW_PBE Ag 02Apr2005                  
 POTCAR:    PAW_PBE Pd 04Jan2005                  
 POTCAR:    PAW_PBE Rh 04Feb2005                  
 POTCAR:    PAW_PBE Ag 02Apr2005                  
   VRHFIN =Ag : s1 d10                                                          
   LEXCH  = PE                                                                  
   EATOM  =  1037.2675 eV,   76.2370 Ry                                         
                                                                                
   TITEL  = PAW_PBE Ag 02Apr2005                                                
   LULTRA =        F    use ultrasoft PP ?                                      
   IUNSCR =        1    unscreen: 0-lin 1-nonlin 2-no                           
   RPACOR =    2.000    partial core radius                                     
   POMASS =  107.868; ZVAL   =   11.000    mass and valenz                      
   RCORE  =    2.500    outmost cutoff radius                                   
   RWIGS  =    2.840; RWIGS  =    1.503    wigner-seitz radius (au A)           
   ENMAX  =  249.844; ENMIN  =  187.383 eV                                      
   ICORE  =        3    local potential                                         
   LCOR   =        T    correct aug charges                                     
   LPAW   =        T    paw PP                                                  
   EAUG   =  412.496                                                            
   DEXC   =    0.000                                                            
   RMAX   =    2.560    core radius for proj-oper                               
   RAUG   =    1.300    factor for augmentation sphere                          
   RDEP   =    2.576    radius for radial grids                                 
   RDEPT  =    2.072    core radius for aug-charge                              
                                                                                
   Atomic configuration                                                         
   12 entries                                                                   
     n  l   j            E        occ.                                          
     1  0  0.50    -25324.9161   2.0000                                         
     2  0  0.50     -3728.5341   2.0000                                         
     2  1  1.50     -3344.0404   6.0000                                         
     3  0  0.50      -683.5581   2.0000                                         
     3  1  1.50      -557.3225   6.0000                                         
     3  2  2.50      -358.3853  10.0000                                         
     4  0  0.50       -95.0341   2.0000                                         
     4  1  1.50       -58.5511   6.0000                                         
     4  2  2.50        -7.4440  10.0000                                         
     5  0  0.50        -4.4045   1.0000                                         
     5  1  0.50        -1.3606   0.0000                                         
     4  3  2.50        -1.3606   0.0000                                         
   Description                                                                  
     l       E           TYP  RCUT    TYP  RCUT                                 
     2     -7.4439781     23  2.400                                             
     2     -8.8045607     23  2.400                                             
     0     -4.4044681     23  2.400                                             
     0      1.9520038     23  2.400                                             
     1     -1.3605826     23  2.500                                             
     1     27.2116520     23  2.500                                             
     3     -4.0817478     23  2.400                                             
  local pseudopotential read in
  partial core-charges read in
  partial kinetic energy density read in
  atomic valenz-charges read in
  non local Contribution for L=           2  read in
    real space projection operators read in
  non local Contribution for L=           2  read in
    real space projection operators read in
  non local Contribution for L=           0  read in
    real space projection operators read in
  non local Contribution for L=           0  read in
    real space projection operators read in
  non local Contribution for L=           1  read in
    real space projection operators read in
  non local Contribution for L=           1  read in
    real space projection operators read in
    PAW grid and wavefunctions read in
 
   number of l-projection  operators is LMAX  =           6
   number of lm-projection operators is LMMAX =          18
 
 POTCAR:    PAW_PBE Pd 04Jan2005                  
   VRHFIN =Pd : s1 d9                                                           
   LEXCH  = PE                                                                  
   EATOM  =   809.7530 eV,   59.5152 Ry                                         
                                                                                
   TITEL  = PAW_PBE Pd 04Jan2005                                                
   LULTRA =        F    use ultrasoft PP ?                                      
   IUNSCR =        1    unscreen: 0-lin 1-nonlin 2-no                           
   RPACOR =    2.000    partial core radius                                     
   POMASS =  106.420; ZVAL   =   10.000    mass and valenz                      
   RCORE  =    2.600    outmost cutoff radius                                   
   RWIGS  =    2.710; RWIGS  =    1.434    wigner-seitz radius (au A)           
   ENMAX  =  250.925; ENMIN  =  188.194 eV                                      
   ICORE  =        3    local potential                                         
   LCOR   =        T    correct aug charges                                     
   LPAW   =        T    paw PP                                                  
   EAUG   =  416.230                                                            
   DEXC   =    0.000                                                            
   RMAX   =    2.653    core radius for proj-oper                               
   RAUG   =    1.300    factor for augmentation sphere                          
   RDEP   =    2.734    radius for radial grids                                 
   RDEPT  =    2.103    core radius for aug-charge                              
                                                                                
   Atomic configuration                                                         
   12 entries                                                                   
     n  l   j            E        occ.                                          
     1  0  0.50    -24164.6631   2.0000                                         
     2  0  0.50     -3530.9218   2.0000                                         
     2  1  1.50     -3165.6822   6.0000                                         
     3  0  0.50      -639.4577   2.0000                                         
     3  1  1.50      -519.4532   6.0000                                         
     3  2  2.50      -328.9757  10.0000                                         
     4  0  0.50       -88.7014   2.0000                                         
     4  1  1.50       -54.4540   6.0000                                         
     4  2  2.50        -6.6878   9.0000                                         
     5  0  0.50        -4.3543   1.0000                                         
     5  1  0.50        -1.3606   0.0000                                         
     4  3  2.50        -1.3606   0.0000                                         
   Description                                                                  
     l       E           TYP  RCUT    TYP  RCUT                                 
     2     -6.6878251     23  2.400                                             
     2     -8.0484077     23  2.400                                             
     0     -4.3542939     23  2.400                                             
     0      4.3406793     23  2.400                                             
     1     -4.0817478     23  2.600                                             
     1     15.8380318     23  2.600                                             
     3     -4.0817478     23  2.400                                             
  local pseudopotential read in
  partial core-charges read in
  partial kinetic energy density read in
  atomic valenz-charges read in
  non local Contribution for L=           2  read in
    real space projection operators read in
  non local Contribution for L=           2  read in
    real space projection operators read in
  non local Contribution for L=           0  read in
    real space projection operators read in
  non local Contribution for L=           0  read in
    real space projection operators read in
  non local Contribution for L=           1  read in
    real space projection operators read in
  non local Contribution for L=           1  read in
    real space projection operators read in
    PAW grid and wavefunctions read in
 
   number of l-projection  operators is LMAX  =           6
   number of lm-projection operators is LMMAX =          18
 
 POTCAR:    PAW_PBE Rh 04Feb2005                  
   VRHFIN =Rh: s1 d8                                                            
   LEXCH  = PE                                                                  
   EATOM  =   616.4198 eV,   45.3056 Ry                                         
                                                                                
   TITEL  = PAW_PBE Rh 04Feb2005                                                
   LULTRA =        F    use ultrasoft PP ?                                      
   IUNSCR =        1    unscreen: 0-lin 1-nonlin 2-no                           
   RPACOR =    2.170    partial core radius                                     
   POMASS =  102.906; ZVAL   =    9.000    mass and valenz                      
   RCORE  =    2.700    outmost cutoff radius                                   
   RWIGS  =    2.650; RWIGS  =    1.402    wigner-seitz radius (au A)           
   ENMAX  =  228.996; ENMIN  =  171.747 eV                                      
   ICORE  =        3    local potential                                         
   LCOR   =        T    correct aug charges                                     
   LPAW   =        T    paw PP                                                  
   EAUG   =  374.513                                                            
   DEXC   =    0.000                                                            
   RMAX   =    2.752    core radius for proj-oper                               
   RAUG   =    1.300    factor for augmentation sphere                          
   RDEP   =    2.703    radius for radial grids                                 
   RDEPT  =    2.174    core radius for aug-charge                              
                                                                                
   Atomic configuration                                                         
   12 entries                                                                   
     n  l   j            E        occ.                                          
     1  0  0.50    -23034.1986   2.0000                                         
     2  0  0.50     -3339.2387   2.0000                                         
     2  1  1.50     -2992.3290   6.0000                                         
     3  0  0.50      -596.7249   2.0000                                         
     3  1  1.50      -482.7183   6.0000                                         
     3  2  2.50      -300.5356  10.0000                                         
     4  0  0.50       -82.4809   2.0000                                         
     4  1  0.50       -50.4082   6.0000                                         
     4  2  2.50        -5.9408   8.0000                                         
     5  0  0.50        -4.2999   1.0000                                         
     5  1  1.50        -1.3606   0.0000                                         
     4  3  2.50        -1.3606   0.0000                                         
   Description                                                                  
     l       E           TYP  RCUT    TYP  RCUT                                 
     2     -5.9407964     23  2.500                                             
     2     -7.3013790     23  2.500                                             
     0     -4.2998518     23  2.400                                             
     0      6.0533315     23  2.400                                             
     1     -4.0817478     23  2.700                                             
     1     27.2116520     23  2.700                                             
     3     -4.0817478     23  2.500                                             
  local pseudopotential read in
  partial core-charges read in
  partial kinetic energy density read in
  atomic valenz-charges read in
  non local Contribution for L=           2  read in
    real space projection operators read in
  non local Contribution for L=           2  read in
    real space projection operators read in
  non local Contribution for L=           0  read in
    real space projection operators read in
  non local Contribution for L=           0  read in
    real space projection operators read in
  non local Contribution for L=           1  read in
    real space projection operators read in
  non local Contribution for L=           1  read in
    real space projection operators read in
    PAW grid and wavefunctions read in
 
   number of l-projection  operators is LMAX  =           6
   number of lm-projection operators is LMMAX =          18
 
 Optimization of the real space projectors (new method)

 maximal supplied QI-value         = 15.12
 optimisation between [QCUT,QGAM] = [  9.52, 19.05] = [ 25.40,101.61] Ry 
 Optimized for a Real-space Cutoff    1.43 Angstroem

   l    n(q)    QCUT    max X(q) W(low)/X(q) W(high)/X(q)  e(spline) 
   2      7     9.524    53.897    0.36E-03    0.74E-03    0.67E-07
   2      7     9.524    52.416    0.37E-03    0.76E-03    0.67E-07
   0      8     9.524   122.045    0.11E-03    0.28E-03    0.55E-07
   0      8     9.524    73.629    0.11E-03    0.27E-03    0.53E-07
   1      8     9.524    15.255    0.22E-03    0.34E-03    0.12E-06
   1      8     9.524     9.562    0.19E-03    0.28E-03    0.10E-06
 Optimization of the real space projectors (new method)

 maximal supplied QI-value         = 14.36
 optimisation between [QCUT,QGAM] = [  9.48, 19.10] = [ 25.16,102.17] Ry 
 Optimized for a Real-space Cutoff    1.52 Angstroem

   l    n(q)    QCUT    max X(q) W(low)/X(q) W(high)/X(q)  e(spline) 
   2      8     9.479    59.108    0.48E-04    0.31E-03    0.96E-07
   2      8     9.479    58.101    0.46E-04    0.32E-03    0.99E-07
   0      9     9.479   102.235    0.56E-04    0.11E-03    0.61E-07
   0      9     9.479    58.388    0.50E-04    0.10E-03    0.58E-07
   1      8     9.479    22.191    0.26E-03    0.25E-04    0.13E-06
   1      8     9.479    15.590    0.22E-03    0.23E-04    0.11E-06
 Optimization of the real space projectors (new method)

 maximal supplied QI-value         = 13.98
 optimisation between [QCUT,QGAM] = [  9.51, 19.16] = [ 25.32,102.78] Ry 
 Optimized for a Real-space Cutoff    1.57 Angstroem

   l    n(q)    QCUT    max X(q) W(low)/X(q) W(high)/X(q)  e(spline) 
   2      8     9.509    59.645    0.36E-03    0.26E-04    0.85E-07
   2      8     9.509    58.460    0.36E-03    0.26E-04    0.89E-07
   0      9     9.509    97.683    0.11E-03    0.15E-03    0.88E-07
   0      9     9.509    53.223    0.10E-03    0.14E-03    0.82E-07
   1      8     9.509    13.596    0.23E-03    0.93E-04    0.99E-07
   1      8     9.509     7.885    0.17E-03    0.72E-04    0.80E-07
  PAW_PBE Ag 02Apr2005                  :
 energy of atom  1       EATOM=-1037.2675
 kinetic energy error for atom=    0.0272 (will be added to EATOM!!)
  PAW_PBE Pd 04Jan2005                  :
 energy of atom  2       EATOM= -809.7530
 kinetic energy error for atom=    0.0269 (will be added to EATOM!!)
  PAW_PBE Rh 04Feb2005                  :
 energy of atom  3       EATOM= -616.4198
 kinetic energy error for atom=    0.0105 (will be added to EATOM!!)
 
 
 POSCAR: Ag Pd Rh                                
  positions in cartesian coordinates
  No initial velocities read in
 exchange correlation table for  LEXCH =        8
   RHO(1)=    0.500       N(1)  =     2000
   RHO(2)=  100.500       N(2)  =     4000
 


--------------------------------------------------------------------------------------------------------


 ion  position               nearest neighbor table
   1  0.333  0.833  0.578-   9 2.78  12 2.78  11 2.78  14 2.79  15 2.79  13 2.79  14 2.79  13 2.79
                            15 2.79  17 2.79  16 2.79  19 2.79
   2  0.833  0.333  0.344-  20 2.79   8 2.79   6 2.79   4 2.79   3 2.79   4 2.79   5 2.79   3 2.79
                             5 2.79
   3  0.333  0.333  0.344-   8 2.79   7 2.79  20 2.79   5 2.79   2 2.79   4 2.79   5 2.79   2 2.79
                             4 2.79
   4  0.833  0.833  0.344-   6 2.79   7 2.79  20 2.79   5 2.79   2 2.79   2 2.79   3 2.79   3 2.79
                             5 2.79
   5  0.333  0.833  0.344-   7 2.79   6 2.79   8 2.79   4 2.79   3 2.79   2 2.79   3 2.79   2 2.79
                             4 2.79
   6  0.000  0.000  0.422-   9 2.79  11 2.79  10 2.79   4 2.79   5 2.79   2 2.79   7 2.79  20 2.79
                             8 2.79  20 2.79   7 2.79   8 2.79
   7  0.500  0.000  0.422-  10 2.79  12 2.79   9 2.79   5 2.79   3 2.79   4 2.79   8 2.79   6 2.79
                             8 2.79  20 2.79   6 2.79  20 2.79
   8  0.500  0.500  0.422-  12 2.79  10 2.79  11 2.79   3 2.79   5 2.79   2 2.79   7 2.79  20 2.79
                             6 2.79   7 2.79   6 2.79  20 2.79
   9  0.167  0.167  0.500-   1 2.78  13 2.78  14 2.78   6 2.79  20 2.79   7 2.79  11 2.79  10 2.79
                            11 2.79  12 2.79  10 2.79  12 2.79
  10  0.667  0.167  0.500-  14 2.78  15 2.78  13 2.78   7 2.79   8 2.79   6 2.79  12 2.79   9 2.79
                            11 2.79  12 2.79   9 2.79  11 2.79
  11  0.167  0.667  0.500-  14 2.78  15 2.78   1 2.78  20 2.79   6 2.79   8 2.79  12 2.79   9 2.79
                             9 2.79  10 2.79  10 2.79  12 2.79
  12  0.667  0.667  0.500-   1 2.78  13 2.78  15 2.78   8 2.79   7 2.79  20 2.79  11 2.79  10 2.79
                             9 2.79  10 2.79   9 2.79  11 2.79
  13  0.833  0.333  0.578-   9 2.78  12 2.78  10 2.78  14 2.79  15 2.79   1 2.79  15 2.79   1 2.79
                            14 2.79  18 2.79  16 2.79  19 2.79
  14  0.333  0.333  0.578-  10 2.78  11 2.78   9 2.78   1 2.79  13 2.79   1 2.79  15 2.79  13 2.79
                            15 2.79  19 2.79  18 2.79  17 2.79
  15  0.833  0.833  0.578-  10 2.78  11 2.78  12 2.78   1 2.79  13 2.79  13 2.79  14 2.79   1 2.79
                            14 2.79  16 2.79  17 2.79  18 2.79
  16  0.000  0.000  0.656-  17 2.79  18 2.79  18 2.79  19 2.79  17 2.79  19 2.79  15 2.79  13 2.79
                             1 2.79
  17  0.500  0.000  0.656-  16 2.79  19 2.79  18 2.79  19 2.79  16 2.79  18 2.79   1 2.79  14 2.79
                            15 2.79
  18  0.000  0.500  0.656-  16 2.79  19 2.79  16 2.79  17 2.79  17 2.79  19 2.79  13 2.79  14 2.79
                            15 2.79
  19  0.500  0.500  0.656-  17 2.79  18 2.79  16 2.79  17 2.79  16 2.79  18 2.79  14 2.79  13 2.79
                             1 2.79
  20  0.000  0.500  0.422-  11 2.79   9 2.79  12 2.79   2 2.79   4 2.79   3 2.79   8 2.79   6 2.79
                             6 2.79   7 2.79   7 2.79   8 2.79
 
  LATTYP: Found a hexagonal cell.
 ALAT       =     5.5720014357
 C/A-ratio  =     5.2223676856
  
  Lattice vectors:
  
 A1 = (   2.7860007179,  -4.8254947933,   0.0000000000)
 A2 = (  -5.5720014357,   0.0000000000,   0.0000000000)
 A3 = (   0.0000000000,   0.0000000000, -29.0990402424)


Analysis of symmetry for initial positions (statically):
=====================================================================
 Subroutine PRICEL returns:
 Original cell was already a primitive cell.
 

 Routine SETGRP: Setting up the symmetry group for a 
 hexagonal supercell.


 Subroutine GETGRP returns: Found  6 space group operations
 (whereof  2 operations were pure point group operations)
 out of a pool of 24 trial point group operations.


The static configuration has the point symmetry C_1h.
 The point group associated with its full space group is C_3v.


Analysis of symmetry for dynamics (positions and initial velocities):
=====================================================================
 Subroutine PRICEL returns:
 Original cell was already a primitive cell.
 

 Routine SETGRP: Setting up the symmetry group for a 
 hexagonal supercell.


 Subroutine GETGRP returns: Found  6 space group operations
 (whereof  2 operations were pure point group operations)
 out of a pool of 24 trial point group operations.


The dynamic configuration has the point symmetry C_1h.
 The point group associated with its full space group is C_3v.


Analysis of constrained symmetry for selective dynamics:
=====================================================================
 Subroutine PRICEL returns:
 Original cell was already a primitive cell.
 

 Routine SETGRP: Setting up the symmetry group for a 
 hexagonal supercell.


 Subroutine GETGRP returns: Found  6 space group operations
 (whereof  2 operations were pure point group operations)
 out of a pool of 24 trial point group operations.


The constrained configuration has the point symmetry C_1h.
 The point group associated with its full space group is C_3v.


 Subroutine INISYM returns: Found  6 space group operations
 (whereof  2 operations are pure point group operations),
 and found     1 'primitive' translations

 
 
 KPOINTS: 0_2_Rh12_Ag3                            

Automatic generation of k-mesh.
Space group operators:
 irot       det(A)        alpha          n_x          n_y          n_z        tau_x        tau_y        tau_z
    1     1.000000     0.000000     1.000000     0.000000     0.000000     0.000000     0.000000     0.000000
    2    -1.000000   180.000000    -0.500000    -0.866025     0.000000     0.000000     0.000000     0.000000
    3     1.000000   120.000000     0.000000     0.000000     1.000000    -0.500000     0.000000     0.000000
    4     1.000000   120.000000     0.000000     0.000000    -1.000000     0.500000    -0.500000     0.000000
    5    -1.000000   180.000000     0.500000    -0.866025     0.000000     0.500000    -0.500000     0.000000
    6    -1.000000   180.000000     1.000000     0.000000     0.000000    -0.500000     0.000000     0.000000
 
 Subroutine IBZKPT returns following result:
 ===========================================
 
 Found     20 irreducible k-points:
 
 Following reciprocal coordinates:
            Coordinates               Weight
  0.062500  0.062500  0.000000     48.000000
  0.187500  0.062500  0.000000     96.000000
  0.312500  0.062500  0.000000     96.000000
  0.437500  0.062500  0.000000     96.000000
 -0.437500  0.062500  0.000000     96.000000
 -0.312500  0.062500  0.000000     96.000000
 -0.187500  0.062500  0.000000     96.000000
 -0.062500  0.062500  0.000000     48.000000
  0.187500  0.187500  0.000000     48.000000
  0.312500  0.187500  0.000000     96.000000
  0.437500  0.187500  0.000000     96.000000
 -0.437500  0.187500  0.000000     96.000000
 -0.312500  0.187500  0.000000     96.000000
 -0.187500  0.187500  0.000000     48.000000
  0.312500  0.312500  0.000000     48.000000
  0.437500  0.312500  0.000000     96.000000
 -0.437500  0.312500  0.000000     96.000000
 -0.312500  0.312500  0.000000     48.000000
  0.437500  0.437500  0.000000     48.000000
 -0.437500  0.437500  0.000000     48.000000
 
 Following cartesian coordinates:
            Coordinates               Weight
  0.011217  0.006476  0.000000     48.000000
  0.033650 -0.006476  0.000000     96.000000
  0.056084 -0.019428  0.000000     96.000000
  0.078518 -0.032380  0.000000     96.000000
 -0.078518  0.058284  0.000000     96.000000
 -0.056084  0.045332  0.000000     96.000000
 -0.033650  0.032380  0.000000     96.000000
 -0.011217  0.019428  0.000000     48.000000
  0.033650  0.019428  0.000000     48.000000
  0.056084  0.006476  0.000000     96.000000
  0.078518 -0.006476  0.000000     96.000000
 -0.078518  0.084188  0.000000     96.000000
 -0.056084  0.071236  0.000000     96.000000
 -0.033650  0.058284  0.000000     48.000000
  0.056084  0.032380  0.000000     48.000000
  0.078518  0.019428  0.000000     96.000000
 -0.078518  0.110092  0.000000     96.000000
 -0.056084  0.097140  0.000000     48.000000
  0.078518  0.045332  0.000000     48.000000
 -0.078518  0.135996  0.000000     48.000000
 


--------------------------------------------------------------------------------------------------------




 Dimension of arrays:
   k-points           NKPTS =     20   k-points in BZ     NKDIM =     20   number of bands    NBANDS=    120
   number of dos      NEDOS =    301   number of ions     NIONS =     20
   non local maximal  LDIM  =      6   non local SUM 2l+1 LMDIM =     18
   total plane-waves  NPLWV = 109760
   max r-space proj   IRMAX =   2305   max aug-charges    IRDMAX=   8172
   dimension x,y,z NGX =    28 NGY =   28 NGZ =  140
   dimension x,y,z NGXF=    56 NGYF=   56 NGZF=  280
   support grid    NGXF=    56 NGYF=   56 NGZF=  280
   ions per type =               1  18   1
   NGX,Y,Z   is equivalent  to a cutoff of   8.35,  8.35,  8.00 a.u.
   NGXF,Y,Z  is equivalent  to a cutoff of  16.71, 16.71, 16.00 a.u.

 SYSTEM =  0_2_Rh12_Ag3                            
 POSCAR =  Ag Pd Rh                                

 Startparameter for this run:
   NWRITE =      2    write-flag & timer
   PREC   = normal    normal or accurate (medium, high low for compatibility)
   ISTART =      0    job   : 0-new  1-cont  2-samecut
   ICHARG =      2    charge: 1-file 2-atom 10-const
   ISPIN  =      1    spin polarized calculation?
   LNONCOLLINEAR =      F non collinear calculations
   LSORBIT =      F    spin-orbit coupling
   INIWAV =      1    electr: 0-lowe 1-rand  2-diag
   LASPH  =      F    aspherical Exc in radial PAW
   METAGGA=      F    non-selfconsistent MetaGGA calc.

 Electronic Relaxation 1
   ENCUT  =  350.0 eV  25.72 Ry    5.07 a.u.   8.50  8.50 44.39*2*pi/ulx,y,z
   ENINI  =  350.0     initial cutoff
   ENAUG  =  416.2 eV  augmentation charge cutoff
   NELM   =    300;   NELMIN=  5; NELMDL= -5     # of ELM steps 
   EDIFF  = 0.1E-04   stopping-criterion for ELM
   LREAL  =      T    real-space projection
   NLSPLINE    = F    spline interpolate recip. space projectors
   LCOMPAT=      F    compatible to vasp.4.4
   GGA_COMPAT  = T    GGA compatible to vasp.4.4-vasp.4.6
   LMAXPAW     = -100 max onsite density
   LMAXMIX     =    2 max onsite mixed and CHGCAR
   VOSKOWN=      0    Vosko Wilk Nusair interpolation
   ROPT   =   -0.00050  -0.00050  -0.00050
 Ionic relaxation
   EDIFFG = 0.1E-03   stopping-criterion for IOM
   NSW    =      0    number of steps for IOM
   NBLOCK =      1;   KBLOCK =      1    inner block; outer block 
   IBRION =     -1    ionic relax: 0-MD 1-quasi-New 2-CG
   NFREE  =      0    steps in history (QN), initial steepest desc. (CG)
   ISIF   =      2    stress and relaxation
   IWAVPR =     10    prediction:  0-non 1-charg 2-wave 3-comb
   ISYM   =      2    0-nonsym 1-usesym 2-fastsym
   LCORR  =      T    Harris-Foulkes like correction to forces

   POTIM  = 0.5000    time-step for ionic-motion
   TEIN   =    0.0    initial temperature
   TEBEG  =    0.0;   TEEND  =   0.0 temperature during run
   SMASS  =  -3.00    Nose mass-parameter (am)
   estimated Nose-frequenzy (Omega)   =  0.10E-29 period in steps =****** mass=  -0.710E-27a.u.
   SCALEE = 1.0000    scale energy and forces
   NPACO  =    256;   APACO  = 16.0  distance and # of slots for P.C.
   PSTRESS=    0.0 pullay stress

  Mass of Ions in am
   POMASS = 107.87106.42102.91
  Ionic Valenz
   ZVAL   =  11.00 10.00  9.00
  Atomic Wigner-Seitz radii
   RWIGS  =  -1.00 -1.00 -1.00
  virtual crystal weights 
   VCA    =   1.00  1.00  1.00
   NELECT =     200.0000    total number of electrons
   NUPDOWN=      -1.0000    fix difference up-down

 DOS related values:
   EMIN   =  10.00;   EMAX   =-10.00  energy-range for DOS
   EFERMI =   0.00
   ISMEAR =     1;   SIGMA  =   0.40  broadening in eV -4-tet -1-fermi 0-gaus

 Electronic relaxation 2 (details)
   IALGO  =     38    algorithm
   LDIAG  =      T    sub-space diagonalisation (order eigenvalues)
   LSUBROT=      F    optimize rotation matrix (better conditioning)
   TURBO    =      0    0=normal 1=particle mesh
   IRESTART =      0    0=no restart 2=restart with 2 vectors
   NREBOOT  =      0    no. of reboots
   NMIN     =      0    reboot dimension
   EREF     =   0.00    reference energy to select bands
   IMIX   =      4    mixing-type and parameters
     AMIX     =   0.40;   BMIX     =  1.00
     AMIX_MAG =   1.60;   BMIX_MAG =  1.00
     AMIN     =   0.10
     WC   =   100.;   INIMIX=   1;  MIXPRE=   1;  MAXMIX= -45

 Intra band minimization:
   WEIMIN = 0.0000     energy-eigenvalue tresh-hold
   EBREAK =  0.21E-07  absolut break condition
   DEPER  =   0.30     relativ break condition  

   TIME   =   0.40     timestep for ELM

  volume/ion in A,a.u.               =      39.12       264.00
  Fermi-wavevector in a.u.,A,eV,Ry     =   1.038981  1.963389 14.687236  1.079481
  Thomas-Fermi vector in A             =   2.173490
 
 Write flags
   LWAVE        =      F    write WAVECAR
   LDOWNSAMPLE  =      F    k-point downsampling of WAVECAR
   LCHARG       =      F    write CHGCAR
   LVTOT        =      F    write LOCPOT, total local potential
   LVHAR        =      F    write LOCPOT, Hartree potential only
   LELF         =      F    write electronic localiz. function (ELF)
   LORBIT       =     11    0 simple, 1 ext, 2 COOP (PROOUT), +10 PAW based schemes


 Dipole corrections
   LMONO  =      F    monopole corrections only (constant potential shift)
   LDIPOL =      F    correct potential (dipole corrections)
   IDIPOL =      0    1-x, 2-y, 3-z, 4-all directions 
   EPSILON=  1.0000000 bulk dielectric constant

 Exchange correlation treatment:
   GGA     =    --    GGA type
   LEXCH   =     8    internal setting for exchange type
   VOSKOWN=      0    Vosko Wilk Nusair interpolation
   LHFCALC =     F    Hartree Fock is set to
   LHFONE  =     F    Hartree Fock one center treatment
   AEXX    =    0.0000 exact exchange contribution

 Linear response parameters
   LEPSILON=     F    determine dielectric tensor
   LRPA    =     F    only Hartree local field effects (RPA)
   LNABLA  =     F    use nabla operator in PAW spheres
   LVEL    =     F    velocity operator in full k-point grid
   LINTERFAST=   F  fast interpolation
   KINTER  =     0    interpolate to denser k-point grid
   CSHIFT  =0.1000    complex shift for real part using Kramers Kronig
   OMEGAMAX=  -1.0    maximum frequency
   DEG_THRESHOLD= 0.2000000E-02 threshold for treating states as degnerate
   RTIME   =   -0.100 relaxation time in fs
  (WPLASMAI=    0.000 imaginary part of plasma frequency in eV, 0.658/RTIME)
   DFIELD  = 0.0000000 0.0000000 0.0000000 field for delta impulse in time
 
 Orbital magnetization related:
   ORBITALMAG=     F  switch on orbital magnetization
   LCHIMAG   =     F  perturbation theory with respect to B field
   DQ        =  0.001000  dq finite difference perturbation B field
   LLRAUG    =     F  two centre corrections for induced B field



--------------------------------------------------------------------------------------------------------


 Static calculation
 charge density and potential will be updated during run
 non-spin polarized calculation
 Variant of blocked Davidson
 Davidson routine will perform the subspace rotation
 perform sub-space diagonalisation
    after iterative eigenvector-optimisation
 modified Broyden-mixing scheme, WC =      100.0
 initial mixing is a Kerker type mixing with AMIX =  0.4000 and BMIX =      1.0000
 Hartree-type preconditioning will be used
 using additional bands           20
 real space projection scheme for non local part
 use partial core corrections
 calculate Harris-corrections to forces 
   (improved forces if not selfconsistent)
 use gradient corrections 
 use of overlap-Matrix (Vanderbilt PP)
 Methfessel and Paxton  Order N= 1 SIGMA  =   0.40


--------------------------------------------------------------------------------------------------------


  energy-cutoff  :      350.00
  volume of cell :      782.41
      direct lattice vectors                 reciprocal lattice vectors
     5.572001436  0.000000000  0.000000000     0.179468726 -0.103616317  0.000000000
     2.786000718  4.825494793  0.000000000     0.000000000  0.207232635  0.000000000
     0.000000000  0.000000000 29.099040242     0.000000000  0.000000000  0.034365395

  length of vectors
     5.572001436  5.572001436 29.099040242     0.207232635  0.207232635  0.034365395


 
 k-points in units of 2pi/SCALE and weight: 0_2_Rh12_Ag3                            
   0.01121680  0.00647602  0.00000000       0.031
   0.03365039 -0.00647602  0.00000000       0.062
   0.05608398 -0.01942806  0.00000000       0.062
   0.07851757 -0.03238010  0.00000000       0.062
  -0.07851757  0.05828418  0.00000000       0.062
  -0.05608398  0.04533214  0.00000000       0.062
  -0.03365039  0.03238010  0.00000000       0.062
  -0.01121680  0.01942806  0.00000000       0.031
   0.03365039  0.01942806  0.00000000       0.031
   0.05608398  0.00647602  0.00000000       0.062
   0.07851757 -0.00647602  0.00000000       0.062
  -0.07851757  0.08418826  0.00000000       0.062
  -0.05608398  0.07123622  0.00000000       0.062
  -0.03365039  0.05828418  0.00000000       0.031
   0.05608398  0.03238010  0.00000000       0.031
   0.07851757  0.01942806  0.00000000       0.062
  -0.07851757  0.11009234  0.00000000       0.062
  -0.05608398  0.09714030  0.00000000       0.031
   0.07851757  0.04533214  0.00000000       0.031
  -0.07851757  0.13599642  0.00000000       0.031
 
 k-points in reciprocal lattice and weights: 0_2_Rh12_Ag3                            
   0.06250000  0.06250000  0.00000000       0.031
   0.18750000  0.06250000  0.00000000       0.062
   0.31250000  0.06250000  0.00000000       0.062
   0.43750000  0.06250000  0.00000000       0.062
  -0.43750000  0.06250000  0.00000000       0.062
  -0.31250000  0.06250000  0.00000000       0.062
  -0.18750000  0.06250000  0.00000000       0.062
  -0.06250000  0.06250000  0.00000000       0.031
   0.18750000  0.18750000  0.00000000       0.031
   0.31250000  0.18750000  0.00000000       0.062
   0.43750000  0.18750000  0.00000000       0.062
  -0.43750000  0.18750000  0.00000000       0.062
  -0.31250000  0.18750000  0.00000000       0.062
  -0.18750000  0.18750000  0.00000000       0.031
   0.31250000  0.31250000  0.00000000       0.031
   0.43750000  0.31250000  0.00000000       0.062
  -0.43750000  0.31250000  0.00000000       0.062
  -0.31250000  0.31250000  0.00000000       0.031
   0.43750000  0.43750000  0.00000000       0.031
  -0.43750000  0.43750000  0.00000000       0.031
 
 position of ions in fractional coordinates (direct lattice) 
   0.33333333  0.83333333  0.57799558
   0.83333333  0.33333333  0.34365395
   0.33333333  0.33333333  0.34365395
   0.83333333  0.83333333  0.34365395
   0.33333333  0.83333333  0.34365395
   0.00000000  0.00000000  0.42182697
   0.50000000  0.00000000  0.42182697
   0.50000000  0.50000000  0.42182697
   0.16666667  0.16666667  0.49998846
   0.66666667  0.16666667  0.49998846
   0.16666667  0.66666667  0.49998846
   0.66666667  0.66666667  0.49998846
   0.83333333  0.33333333  0.57799558
   0.33333333  0.33333333  0.57799558
   0.83333333  0.83333333  0.57799558
   0.00000000  0.00000000  0.65638769
   0.50000000  0.00000000  0.65638769
   0.00000000  0.50000000  0.65638769
   0.50000000  0.50000000  0.65638769
   0.00000000  0.50000000  0.42182697
 
 position of ions in cartesian coordinates  (Angst):
   4.17900108  4.02124566 16.81911654
   5.57200144  1.60849826 10.00000000
   2.78600072  1.60849826 10.00000000
   6.96500179  4.02124566 10.00000000
   4.17900108  4.02124566 10.00000000
   0.00000000  0.00000000 12.27476006
   2.78600072  0.00000000 12.27476006
   4.17900108  2.41274740 12.27476006
   1.39300036  0.80424913 14.54918418
   4.17900108  0.80424913 14.54918418
   2.78600072  3.21699653 14.54918418
   5.57200144  3.21699653 14.54918418
   5.57200144  1.60849826 16.81911654
   2.78600072  1.60849826 16.81911654
   6.96500179  4.02124566 16.81911654
   0.00000000  0.00000000 19.10025190
   2.78600072  0.00000000 19.10025190
   1.39300036  2.41274740 19.10025190
   4.17900108  2.41274740 19.10025190
   1.39300036  2.41274740 12.27476006
 


--------------------------------------------------------------------------------------------------------


 k-point  1 :   0.0625 0.0625 0.0000  plane waves:   11699
 k-point  2 :   0.1875 0.0625 0.0000  plane waves:   11678
 k-point  3 :   0.3125 0.0625 0.0000  plane waves:   11644
 k-point  4 :   0.4375 0.0625 0.0000  plane waves:   11613
 k-point  5 :  -0.4375 0.0625 0.0000  plane waves:   11584
 k-point  6 :  -0.3125 0.0625 0.0000  plane waves:   11633
 k-point  7 :  -0.1875 0.0625 0.0000  plane waves:   11664
 k-point  8 :  -0.0625 0.0625 0.0000  plane waves:   11701
 k-point  9 :   0.1875 0.1875 0.0000  plane waves:   11669
 k-point 10 :   0.3125 0.1875 0.0000  plane waves:   11655
 k-point 11 :   0.4375 0.1875 0.0000  plane waves:   11637
 k-point 12 :  -0.4375 0.1875 0.0000  plane waves:   11602
 k-point 13 :  -0.3125 0.1875 0.0000  plane waves:   11602
 k-point 14 :  -0.1875 0.1875 0.0000  plane waves:   11673
 k-point 15 :   0.3125 0.3125 0.0000  plane waves:   11649
 k-point 16 :   0.4375 0.3125 0.0000  plane waves:   11619
 k-point 17 :  -0.4375 0.3125 0.0000  plane waves:   11603
 k-point 18 :  -0.3125 0.3125 0.0000  plane waves:   11606
 k-point 19 :   0.4375 0.4375 0.0000  plane waves:   11610
 k-point 20 :  -0.4375 0.4375 0.0000  plane waves:   11600

 maximum and minimum number of plane-waves per node :      1685     1644

 maximum number of plane-waves:     11701
 maximum index in each direction: 
   IXMAX=    8   IYMAX=    8   IZMAX=   44
   IXMIN=   -8   IYMIN=   -8   IZMIN=  -44


 real space projection operators:
  total allocation   :       5599.55 KBytes
  max/ min on nodes  :        811.12        790.17


 parallel 3D FFT for wavefunctions:
    minimum data exchange during FFTs selected (reduces bandwidth)
 parallel 3D FFT for charge:
    minimum data exchange during FFTs selected (reduces bandwidth)


 total amount of memory used by VASP MPI-rank0    52655. kBytes
=======================================================================

   base      :      30000. kBytes
   nonlr-proj:       1756. kBytes
   fftplans  :       1542. kBytes
   grid      :       2646. kBytes
   one-center:         46. kBytes
   wavefun   :      16665. kBytes
 
     INWAV:  cpu time    0.0000: real time    0.0000
 Broyden mixing: mesh for mixing (old mesh)
   NGX = 17   NGY = 17   NGZ = 89
  (NGX  = 56   NGY  = 56   NGZ  =280)
  gives a total of  25721 points

 initial charge density was supplied:
 charge density of overlapping atoms calculated
 number of electron     200.0000000 magnetization 
 keeping initial charge density in first step


--------------------------------------------------------------------------------------------------------


 Maximum index for non-local projection operator          325
 Maximum index for augmentation-charges          427 (set IRDMAX)


--------------------------------------------------------------------------------------------------------


 First call to EWALD:  gamma=   0.192
 Maximum number of real-space cells 5x 5x 1
 Maximum number of reciprocal cells 2x 2x 8

    FEWALD:  cpu time    0.0017: real time    0.0017


--------------------------------------- Iteration      1(   1)  ---------------------------------------


    POTLOK:  cpu time    0.0201: real time    0.0353
    SETDIJ:  cpu time    0.0027: real time    0.0027
     EDDAV:  cpu time    4.2236: real time    4.2323
       DOS:  cpu time    0.0036: real time    0.0036
    --------------------------------------------
      LOOP:  cpu time    4.2500: real time    4.2739

 eigenvalue-minimisations  :  4832
 total energy-change (2. order) : 0.1098400E+04  (-0.7519977E+04)
 number of electron     200.0000000 magnetization 
 augmentation part      200.0000000 magnetization 

 Free energy of the ion-electron system (eV)
  ---------------------------------------------------
  alpha Z        PSCENC =       335.40302569
  Ewald energy   TEWEN  =    107495.02027461
  -Hartree energ DENC   =   -124355.72051020
  -exchange      EXHF   =         0.00000000
  -V(xc)+E(xc)   XCENC  =      -557.56257663
  PAW double counting   =     16130.81764090   -14922.76608720
  entropy T*S    EENTRO =        -0.00899563
  eigenvalues    EBANDS =       744.49745882
  atomic energy  EATOM  =     16228.71987288
  Solvation  Ediel_sol  =         0.00000000
  ---------------------------------------------------
  free energy    TOTEN  =      1098.40010325 eV

  energy without entropy =     1098.40909888  energy(sigma->0) =     1098.40310180


--------------------------------------------------------------------------------------------------------




--------------------------------------- Iteration      1(   2)  ---------------------------------------


     EDDAV:  cpu time    4.4335: real time    4.4389
       DOS:  cpu time    0.0045: real time    0.0045
    --------------------------------------------
      LOOP:  cpu time    4.4380: real time    4.4434

 eigenvalue-minimisations  :  5504
 total energy-change (2. order) :-0.1139485E+04  (-0.1068596E+04)
 number of electron     200.0000000 magnetization 
 augmentation part      200.0000000 magnetization 

 Free energy of the ion-electron system (eV)
  ---------------------------------------------------
  alpha Z        PSCENC =       335.40302569
  Ewald energy   TEWEN  =    107495.02027461
  -Hartree energ DENC   =   -124355.72051020
  -exchange      EXHF   =         0.00000000
  -V(xc)+E(xc)   XCENC  =      -557.56257663
  PAW double counting   =     16130.81764090   -14922.76608720
  entropy T*S    EENTRO =         0.05437887
  eigenvalues    EBANDS =      -395.05111660
  atomic energy  EATOM  =     16228.71987288
  Solvation  Ediel_sol  =         0.00000000
  ---------------------------------------------------
  free energy    TOTEN  =       -41.08509767 eV

  energy without entropy =      -41.13947654  energy(sigma->0) =      -41.10322396


--------------------------------------------------------------------------------------------------------




--------------------------------------- Iteration      1(   3)  ---------------------------------------


     EDDAV:  cpu time    4.6393: real time    4.6480
       DOS:  cpu time    0.0048: real time    0.0048
    --------------------------------------------
      LOOP:  cpu time    4.6441: real time    4.6528

 eigenvalue-minimisations  :  5552
 total energy-change (2. order) :-0.6148808E+02  (-0.5471728E+02)
 number of electron     200.0000000 magnetization 
 augmentation part      200.0000000 magnetization 

 Free energy of the ion-electron system (eV)
  ---------------------------------------------------
  alpha Z        PSCENC =       335.40302569
  Ewald energy   TEWEN  =    107495.02027461
  -Hartree energ DENC   =   -124355.72051020
  -exchange      EXHF   =         0.00000000
  -V(xc)+E(xc)   XCENC  =      -557.56257663
  PAW double counting   =     16130.81764090   -14922.76608720
  entropy T*S    EENTRO =        -0.29762570
  eigenvalues    EBANDS =      -456.18719658
  atomic energy  EATOM  =     16228.71987288
  Solvation  Ediel_sol  =         0.00000000
  ---------------------------------------------------
  free energy    TOTEN  =      -102.57318221 eV

  energy without entropy =     -102.27555651  energy(sigma->0) =     -102.47397365


--------------------------------------------------------------------------------------------------------




--------------------------------------- Iteration      1(   4)  ---------------------------------------


     EDDAV:  cpu time    4.5718: real time    4.5799
       DOS:  cpu time    0.0048: real time    0.0048
    --------------------------------------------
      LOOP:  cpu time    4.5766: real time    4.5847

 eigenvalue-minimisations  :  5528
 total energy-change (2. order) :-0.1937589E+01  (-0.1911105E+01)
 number of electron     200.0000000 magnetization 
 augmentation part      200.0000000 magnetization 

 Free energy of the ion-electron system (eV)
  ---------------------------------------------------
  alpha Z        PSCENC =       335.40302569
  Ewald energy   TEWEN  =    107495.02027461
  -Hartree energ DENC   =   -124355.72051020
  -exchange      EXHF   =         0.00000000
  -V(xc)+E(xc)   XCENC  =      -557.56257663
  PAW double counting   =     16130.81764090   -14922.76608720
  entropy T*S    EENTRO =        -0.30647143
  eigenvalues    EBANDS =      -458.11593953
  atomic energy  EATOM  =     16228.71987288
  Solvation  Ediel_sol  =         0.00000000
  ---------------------------------------------------
  free energy    TOTEN  =      -104.51077089 eV

  energy without entropy =     -104.20429946  energy(sigma->0) =     -104.40861375


--------------------------------------------------------------------------------------------------------




--------------------------------------- Iteration      1(   5)  ---------------------------------------


     EDDAV:  cpu time    4.7630: real time    4.7655
       DOS:  cpu time    0.0049: real time    0.0049
    CHARGE:  cpu time    0.1850: real time    0.1850
    MIXING:  cpu time    0.0009: real time    0.0009
    --------------------------------------------
      LOOP:  cpu time    4.9538: real time    4.9562

 eigenvalue-minimisations  :  5968
 total energy-change (2. order) :-0.6485792E-01  (-0.6481059E-01)
 number of electron     199.9999759 magnetization 
 augmentation part       81.1405291 magnetization 

 Broyden mixing:
  rms(total) = 0.28757E+01    rms(broyden)= 0.28755E+01
  rms(prec ) = 0.29176E+01
  weight for this iteration     100.00

 Free energy of the ion-electron system (eV)
  ---------------------------------------------------
  alpha Z        PSCENC =       335.40302569
  Ewald energy   TEWEN  =    107495.02027461
  -Hartree energ DENC   =   -124355.72051020
  -exchange      EXHF   =         0.00000000
  -V(xc)+E(xc)   XCENC  =      -557.56257663
  PAW double counting   =     16130.81764090   -14922.76608720
  entropy T*S    EENTRO =        -0.30661726
  eigenvalues    EBANDS =      -458.18065162
  atomic energy  EATOM  =     16228.71987288
  Solvation  Ediel_sol  =         0.00000000
  ---------------------------------------------------
  free energy    TOTEN  =      -104.57562882 eV

  energy without entropy =     -104.26901155  energy(sigma->0) =     -104.47342306


--------------------------------------------------------------------------------------------------------




--------------------------------------- Iteration      1(   6)  ---------------------------------------


    POTLOK:  cpu time    0.0169: real time    0.0171
    SETDIJ:  cpu time    0.0026: real time    0.0026
     EDDAV:  cpu time    4.3267: real time    4.3283
       DOS:  cpu time    0.0048: real time    0.0048
    CHARGE:  cpu time    0.1853: real time    0.1853
    MIXING:  cpu time    0.0010: real time    0.0010
    --------------------------------------------
      LOOP:  cpu time    4.5373: real time    4.5391

 eigenvalue-minimisations  :  5072
 total energy-change (2. order) :-0.3517437E+01  (-0.3566707E+01)
 number of electron     199.9999739 magnetization 
 augmentation part       83.9615302 magnetization 

 Broyden mixing:
  rms(total) = 0.29714E+01    rms(broyden)= 0.29713E+01
  rms(prec ) = 0.40959E+01
  weight for this iteration     100.00

 eigenvalues of (default mixing * dielectric matrix)
  average eigenvalue GAMMA=   0.5206
  0.5206

 Free energy of the ion-electron system (eV)
  ---------------------------------------------------
  alpha Z        PSCENC =       335.40302569
  Ewald energy   TEWEN  =    107495.02027461
  -Hartree energ DENC   =   -124267.00856025
  -exchange      EXHF   =         0.00000000
  -V(xc)+E(xc)   XCENC  =      -561.73432062
  PAW double counting   =     17195.14792897   -16010.58510705
  entropy T*S    EENTRO =        -0.16292858
  eigenvalues    EBANDS =      -522.89325103
  atomic energy  EATOM  =     16228.71987288
  Solvation  Ediel_sol  =         0.00000000
  ---------------------------------------------------
  free energy    TOTEN  =      -108.09306537 eV

  energy without entropy =     -107.93013679  energy(sigma->0) =     -108.03875585


--------------------------------------------------------------------------------------------------------




--------------------------------------- Iteration      1(   7)  ---------------------------------------


    POTLOK:  cpu time    0.0202: real time    0.0219
    SETDIJ:  cpu time    0.0025: real time    0.0025
     EDDAV:  cpu time    5.0073: real time    5.0102
       DOS:  cpu time    0.0046: real time    0.0046
    CHARGE:  cpu time    0.1858: real time    0.1858
    MIXING:  cpu time    0.0010: real time    0.0010
    --------------------------------------------
      LOOP:  cpu time    5.2213: real time    5.2260

 eigenvalue-minimisations  :  6440
 total energy-change (2. order) :-0.2457609E+02  (-0.6131811E+01)
 number of electron     199.9999748 magnetization 
 augmentation part       81.7283965 magnetization 

 Broyden mixing:
  rms(total) = 0.39275E+01    rms(broyden)= 0.39273E+01
  rms(prec ) = 0.61258E+01
  weight for this iteration     100.00

 eigenvalues of (default mixing * dielectric matrix)
  average eigenvalue GAMMA=   0.6675
  1.2225  0.1124

 Free energy of the ion-electron system (eV)
  ---------------------------------------------------
  alpha Z        PSCENC =       335.40302569
  Ewald energy   TEWEN  =    107495.02027461
  -Hartree energ DENC   =   -124314.99918261
  -exchange      EXHF   =         0.00000000
  -V(xc)+E(xc)   XCENC  =      -562.02081154
  PAW double counting   =     17378.35762012   -16197.08978616
  entropy T*S    EENTRO =        -0.05138955
  eigenvalues    EBANDS =      -496.00877931
  atomic energy  EATOM  =     16228.71987288
  Solvation  Ediel_sol  =         0.00000000
  ---------------------------------------------------
  free energy    TOTEN  =      -132.66915586 eV

  energy without entropy =     -132.61776632  energy(sigma->0) =     -132.65202601


--------------------------------------------------------------------------------------------------------




--------------------------------------- Iteration      1(   8)  ---------------------------------------


    POTLOK:  cpu time    0.0188: real time    0.0188
    SETDIJ:  cpu time    0.0025: real time    0.0025
     EDDAV:  cpu time    4.9573: real time    4.9587
       DOS:  cpu time    0.0048: real time    0.0048
    CHARGE:  cpu time    0.1854: real time    0.1854
    MIXING:  cpu time    0.0010: real time    0.0010
    --------------------------------------------
      LOOP:  cpu time    5.1697: real time    5.1713

 eigenvalue-minimisations  :  6088
 total energy-change (2. order) : 0.3507809E+01  (-0.6288633E+01)
 number of electron     199.9999756 magnetization 
 augmentation part       82.9754002 magnetization 

 Broyden mixing:
  rms(total) = 0.40441E+01    rms(broyden)= 0.40439E+01
  rms(prec ) = 0.49556E+01
  weight for this iteration     100.00

 eigenvalues of (default mixing * dielectric matrix)
  average eigenvalue GAMMA=   0.6593
  1.6781  0.1890  0.1110

 Free energy of the ion-electron system (eV)
  ---------------------------------------------------
  alpha Z        PSCENC =       335.40302569
  Ewald energy   TEWEN  =    107495.02027461
  -Hartree energ DENC   =   -124404.39947396
  -exchange      EXHF   =         0.00000000
  -V(xc)+E(xc)   XCENC  =      -563.34841761
  PAW double counting   =     17947.13367797   -16778.64671475
  entropy T*S    EENTRO =        -0.09444937
  eigenvalues    EBANDS =      -388.94914246
  atomic energy  EATOM  =     16228.71987288
  Solvation  Ediel_sol  =         0.00000000
  ---------------------------------------------------
  free energy    TOTEN  =      -129.16134700 eV

  energy without entropy =     -129.06689763  energy(sigma->0) =     -129.12986387


--------------------------------------------------------------------------------------------------------




--------------------------------------- Iteration      1(   9)  ---------------------------------------


    POTLOK:  cpu time    0.0163: real time    0.0164
    SETDIJ:  cpu time    0.0024: real time    0.0024
     EDDAV:  cpu time    4.4051: real time    4.4074
       DOS:  cpu time    0.0049: real time    0.0049
    CHARGE:  cpu time    0.1854: real time    0.1854
    MIXING:  cpu time    0.0011: real time    0.0011
    --------------------------------------------
      LOOP:  cpu time    4.6153: real time    4.6177

 eigenvalue-minimisations  :  5440
 total energy-change (2. order) : 0.2256943E+02  (-0.3737370E+01)
 number of electron     199.9999747 magnetization 
 augmentation part       85.8855112 magnetization 

 Broyden mixing:
  rms(total) = 0.26435E+01    rms(broyden)= 0.26433E+01
  rms(prec ) = 0.31464E+01
  weight for this iteration     100.00

 eigenvalues of (default mixing * dielectric matrix)
  average eigenvalue GAMMA=   0.5900
  1.7670  0.1070  0.2430  0.2430

 Free energy of the ion-electron system (eV)
  ---------------------------------------------------
  alpha Z        PSCENC =       335.40302569
  Ewald energy   TEWEN  =    107495.02027461
  -Hartree energ DENC   =   -124231.37182643
  -exchange      EXHF   =         0.00000000
  -V(xc)+E(xc)   XCENC  =      -564.04728272
  PAW double counting   =     18393.79755957   -17234.47259413
  entropy T*S    EENTRO =         0.12121354
  eigenvalues    EBANDS =      -529.76215564
  atomic energy  EATOM  =     16228.71987288
  Solvation  Ediel_sol  =         0.00000000
  ---------------------------------------------------
  free energy    TOTEN  =      -106.59191263 eV

  energy without entropy =     -106.71312617  energy(sigma->0) =     -106.63231714


--------------------------------------------------------------------------------------------------------




--------------------------------------- Iteration      1(  10)  ---------------------------------------


    POTLOK:  cpu time    0.0167: real time    0.0168
    SETDIJ:  cpu time    0.0026: real time    0.0026
     EDDAV:  cpu time    4.3726: real time    4.3734
       DOS:  cpu time    0.0050: real time    0.0050
    CHARGE:  cpu time    0.1843: real time    0.1844
    MIXING:  cpu time    0.0014: real time    0.0014
    --------------------------------------------
      LOOP:  cpu time    4.5825: real time    4.5836

 eigenvalue-minimisations  :  5104
 total energy-change (2. order) : 0.2235143E+01  (-0.4488109E+01)
 number of electron     199.9999748 magnetization 
 augmentation part       85.3958314 magnetization 

 Broyden mixing:
  rms(total) = 0.18628E+01    rms(broyden)= 0.18624E+01
  rms(prec ) = 0.21620E+01
  weight for this iteration     100.00

 eigenvalues of (default mixing * dielectric matrix)
  average eigenvalue GAMMA=   0.5709
  1.6196  0.7504  0.1077  0.1883  0.1883

 Free energy of the ion-electron system (eV)
  ---------------------------------------------------
  alpha Z        PSCENC =       335.40302569
  Ewald energy   TEWEN  =    107495.02027461
  -Hartree energ DENC   =   -124255.30080558
  -exchange      EXHF   =         0.00000000
  -V(xc)+E(xc)   XCENC  =      -563.50022878
  PAW double counting   =     18573.48090138   -17413.59845442
  entropy T*S    EENTRO =        -0.24936261
  eigenvalues    EBANDS =      -504.33199298
  atomic energy  EATOM  =     16228.71987288
  Solvation  Ediel_sol  =         0.00000000
  ---------------------------------------------------
  free energy    TOTEN  =      -104.35676981 eV

  energy without entropy =     -104.10740720  energy(sigma->0) =     -104.27364894


--------------------------------------------------------------------------------------------------------




--------------------------------------- Iteration      1(  11)  ---------------------------------------


    POTLOK:  cpu time    0.0170: real time    0.0171
    SETDIJ:  cpu time    0.0024: real time    0.0024
     EDDAV:  cpu time    4.2835: real time    4.2857
       DOS:  cpu time    0.0049: real time    0.0049
    CHARGE:  cpu time    0.1848: real time    0.1848
    MIXING:  cpu time    0.0012: real time    0.0012
    --------------------------------------------
      LOOP:  cpu time    4.4939: real time    4.4962

 eigenvalue-minimisations  :  5104
 total energy-change (2. order) : 0.3811171E+01  (-0.8092294E+00)
 number of electron     199.9999741 magnetization 
 augmentation part       84.7235254 magnetization 

 Broyden mixing:
  rms(total) = 0.12457E+01    rms(broyden)= 0.12455E+01
  rms(prec ) = 0.14527E+01
  weight for this iteration     100.00

 eigenvalues of (default mixing * dielectric matrix)
  average eigenvalue GAMMA=   0.5648
  1.7595  0.8013  0.1071  0.2402  0.2402  0.2405

 Free energy of the ion-electron system (eV)
  ---------------------------------------------------
  alpha Z        PSCENC =       335.40302569
  Ewald energy   TEWEN  =    107495.02027461
  -Hartree energ DENC   =   -124286.41534263
  -exchange      EXHF   =         0.00000000
  -V(xc)+E(xc)   XCENC  =      -562.54876583
  PAW double counting   =     18681.14437407   -17517.85995848
  entropy T*S    EENTRO =        -0.32753644
  eigenvalues    EBANDS =      -473.68154234
  atomic energy  EATOM  =     16228.71987288
  Solvation  Ediel_sol  =         0.00000000
  ---------------------------------------------------
  free energy    TOTEN  =      -100.54559847 eV

  energy without entropy =     -100.21806203  energy(sigma->0) =     -100.43641965


--------------------------------------------------------------------------------------------------------




--------------------------------------- Iteration      1(  12)  ---------------------------------------


    POTLOK:  cpu time    0.0173: real time    0.0174
    SETDIJ:  cpu time    0.0024: real time    0.0024
     EDDAV:  cpu time    4.3293: real time    4.3301
       DOS:  cpu time    0.0050: real time    0.0050
    CHARGE:  cpu time    0.1853: real time    0.1854
    MIXING:  cpu time    0.0014: real time    0.0014
    --------------------------------------------
      LOOP:  cpu time    4.5408: real time    4.5418

 eigenvalue-minimisations  :  5064
 total energy-change (2. order) : 0.3811233E+00  (-0.1070461E+01)
 number of electron     199.9999748 magnetization 
 augmentation part       84.4149751 magnetization 

 Broyden mixing:
  rms(total) = 0.79821E+00    rms(broyden)= 0.79791E+00
  rms(prec ) = 0.87981E+00
  weight for this iteration     100.00

 eigenvalues of (default mixing * dielectric matrix)
  average eigenvalue GAMMA=   0.5709
  1.9474  0.6377  0.6377  0.1071  0.2629  0.2018  0.2018

 Free energy of the ion-electron system (eV)
  ---------------------------------------------------
  alpha Z        PSCENC =       335.40302569
  Ewald energy   TEWEN  =    107495.02027461
  -Hartree energ DENC   =   -124313.40313321
  -exchange      EXHF   =         0.00000000
  -V(xc)+E(xc)   XCENC  =      -562.39678885
  PAW double counting   =     18799.86849830   -17636.80696651
  entropy T*S    EENTRO =        -0.34793150
  eigenvalues    EBANDS =      -446.22132654
  atomic energy  EATOM  =     16228.71987288
  Solvation  Ediel_sol  =         0.00000000
  ---------------------------------------------------
  free energy    TOTEN  =      -100.16447512 eV

  energy without entropy =      -99.81654362  energy(sigma->0) =     -100.04849796


--------------------------------------------------------------------------------------------------------




--------------------------------------- Iteration      1(  13)  ---------------------------------------


    POTLOK:  cpu time    0.0172: real time    0.0178
    SETDIJ:  cpu time    0.0025: real time    0.0025
     EDDAV:  cpu time    4.3579: real time    4.3603
       DOS:  cpu time    0.0050: real time    0.0050
    CHARGE:  cpu time    0.1845: real time    0.1845
    MIXING:  cpu time    0.0013: real time    0.0013
    --------------------------------------------
      LOOP:  cpu time    4.5683: real time    4.5713

 eigenvalue-minimisations  :  5072
 total energy-change (2. order) : 0.6503468E+00  (-0.1802189E+00)
 number of electron     199.9999747 magnetization 
 augmentation part       84.5731671 magnetization 

 Broyden mixing:
  rms(total) = 0.47087E+00    rms(broyden)= 0.47072E+00
  rms(prec ) = 0.58840E+00
  weight for this iteration     100.00

 eigenvalues of (default mixing * dielectric matrix)
  average eigenvalue GAMMA=   0.5939
  1.9905  0.7273  0.7273  0.5386  0.1071  0.2388  0.2108  0.2108

 Free energy of the ion-electron system (eV)
  ---------------------------------------------------
  alpha Z        PSCENC =       335.40302569
  Ewald energy   TEWEN  =    107495.02027461
  -Hartree energ DENC   =   -124307.08332553
  -exchange      EXHF   =         0.00000000
  -V(xc)+E(xc)   XCENC  =      -562.56837932
  PAW double counting   =     18872.29125419   -17710.63666377
  entropy T*S    EENTRO =        -0.33773564
  eigenvalues    EBANDS =      -450.32245145
  atomic energy  EATOM  =     16228.71987288
  Solvation  Ediel_sol  =         0.00000000
  ---------------------------------------------------
  free energy    TOTEN  =       -99.51412834 eV

  energy without entropy =      -99.17639270  energy(sigma->0) =      -99.40154979


--------------------------------------------------------------------------------------------------------




--------------------------------------- Iteration      1(  14)  ---------------------------------------


    POTLOK:  cpu time    0.0175: real time    0.0182
    SETDIJ:  cpu time    0.0024: real time    0.0024
     EDDAV:  cpu time    4.2354: real time    4.2362
       DOS:  cpu time    0.0050: real time    0.0050
    CHARGE:  cpu time    0.1856: real time    0.1857
    MIXING:  cpu time    0.0014: real time    0.0014
    --------------------------------------------
      LOOP:  cpu time    4.4473: real time    4.4488

 eigenvalue-minimisations  :  5104
 total energy-change (2. order) :-0.1055165E-01  (-0.1455050E+00)
 number of electron     199.9999748 magnetization 
 augmentation part       84.6384554 magnetization 

 Broyden mixing:
  rms(total) = 0.47584E+00    rms(broyden)= 0.47571E+00
  rms(prec ) = 0.61651E+00
  weight for this iteration     100.00

 eigenvalues of (default mixing * dielectric matrix)
  average eigenvalue GAMMA=   0.5818
  1.9525  0.8532  0.8532  0.4150  0.4150  0.1071  0.2166  0.2166  0.2075

 Free energy of the ion-electron system (eV)
  ---------------------------------------------------
  alpha Z        PSCENC =       335.40302569
  Ewald energy   TEWEN  =    107495.02027461
  -Hartree energ DENC   =   -124311.57165158
  -exchange      EXHF   =         0.00000000
  -V(xc)+E(xc)   XCENC  =      -562.65313447
  PAW double counting   =     18868.81789433   -17707.60638421
  entropy T*S    EENTRO =        -0.34435171
  eigenvalues    EBANDS =      -445.31022554
  atomic energy  EATOM  =     16228.71987288
  Solvation  Ediel_sol  =         0.00000000
  ---------------------------------------------------
  free energy    TOTEN  =       -99.52467999 eV

  energy without entropy =      -99.18032828  energy(sigma->0) =      -99.40989608


--------------------------------------------------------------------------------------------------------




--------------------------------------- Iteration      1(  15)  ---------------------------------------


    POTLOK:  cpu time    0.0187: real time    0.0188
    SETDIJ:  cpu time    0.0026: real time    0.0026
     EDDAV:  cpu time    4.3111: real time    4.3136
       DOS:  cpu time    0.0050: real time    0.0050
    CHARGE:  cpu time    0.1850: real time    0.1850
    MIXING:  cpu time    0.0015: real time    0.0015
    --------------------------------------------
      LOOP:  cpu time    4.5239: real time    4.5265

 eigenvalue-minimisations  :  5000
 total energy-change (2. order) : 0.3893795E-01  (-0.4554232E-01)
 number of electron     199.9999746 magnetization 
 augmentation part       84.6545018 magnetization 

 Broyden mixing:
  rms(total) = 0.46050E+00    rms(broyden)= 0.46045E+00
  rms(prec ) = 0.60022E+00
  weight for this iteration     100.00

 eigenvalues of (default mixing * dielectric matrix)
  average eigenvalue GAMMA=   0.6724
  1.9572  1.3393  1.3393  0.5471  0.5471  0.1071  0.2675  0.2119  0.2119  0.1956

 Free energy of the ion-electron system (eV)
  ---------------------------------------------------
  alpha Z        PSCENC =       335.40302569
  Ewald energy   TEWEN  =    107495.02027461
  -Hartree energ DENC   =   -124310.21213034
  -exchange      EXHF   =         0.00000000
  -V(xc)+E(xc)   XCENC  =      -562.60386116
  PAW double counting   =     18850.85705739   -17689.29786812
  entropy T*S    EENTRO =        -0.30631162
  eigenvalues    EBANDS =      -447.06580138
  atomic energy  EATOM  =     16228.71987288
  Solvation  Ediel_sol  =         0.00000000
  ---------------------------------------------------
  free energy    TOTEN  =       -99.48574204 eV

  energy without entropy =      -99.17943042  energy(sigma->0) =      -99.38363816


--------------------------------------------------------------------------------------------------------




--------------------------------------- Iteration      1(  16)  ---------------------------------------


    POTLOK:  cpu time    0.0163: real time    0.0165
    SETDIJ:  cpu time    0.0025: real time    0.0025
     EDDAV:  cpu time    4.1755: real time    4.1763
       DOS:  cpu time    0.0050: real time    0.0050
    CHARGE:  cpu time    0.1849: real time    0.1850
    MIXING:  cpu time    0.0017: real time    0.0017
    --------------------------------------------
      LOOP:  cpu time    4.3861: real time    4.3872

 eigenvalue-minimisations  :  5056
 total energy-change (2. order) : 0.8870065E-01  (-0.5756147E-01)
 number of electron     199.9999746 magnetization 
 augmentation part       84.6321366 magnetization 

 Broyden mixing:
  rms(total) = 0.23408E+00    rms(broyden)= 0.23397E+00
  rms(prec ) = 0.25492E+00
  weight for this iteration     100.00

 eigenvalues of (default mixing * dielectric matrix)
  average eigenvalue GAMMA=   0.7113
  2.1854  1.4518  1.4518  0.7161  0.5251  0.5251  0.1071  0.2144  0.2144  0.2364
  0.1969

 Free energy of the ion-electron system (eV)
  ---------------------------------------------------
  alpha Z        PSCENC =       335.40302569
  Ewald energy   TEWEN  =    107495.02027461
  -Hartree energ DENC   =   -124324.30965713
  -exchange      EXHF   =         0.00000000
  -V(xc)+E(xc)   XCENC  =      -562.48965712
  PAW double counting   =     18816.80714423   -17654.57356500
  entropy T*S    EENTRO =        -0.35837949
  eigenvalues    EBANDS =      -433.61610007
  atomic energy  EATOM  =     16228.71987288
  Solvation  Ediel_sol  =         0.00000000
  ---------------------------------------------------
  free energy    TOTEN  =       -99.39704139 eV

  energy without entropy =      -99.03866190  energy(sigma->0) =      -99.27758156


--------------------------------------------------------------------------------------------------------




--------------------------------------- Iteration      1(  17)  ---------------------------------------


    POTLOK:  cpu time    0.0164: real time    0.0166
    SETDIJ:  cpu time    0.0025: real time    0.0025
     EDDAV:  cpu time    4.3335: real time    4.3345
       DOS:  cpu time    0.0050: real time    0.0050
    CHARGE:  cpu time    0.1842: real time    0.1842
    MIXING:  cpu time    0.0017: real time    0.0017
    --------------------------------------------
      LOOP:  cpu time    4.5434: real time    4.5445

 eigenvalue-minimisations  :  5048
 total energy-change (2. order) : 0.1909269E-01  (-0.1169193E-01)
 number of electron     199.9999746 magnetization 
 augmentation part       84.5941115 magnetization 

 Broyden mixing:
  rms(total) = 0.19455E+00    rms(broyden)= 0.19451E+00
  rms(prec ) = 0.23976E+00
  weight for this iteration     100.00

 eigenvalues of (default mixing * dielectric matrix)
  average eigenvalue GAMMA=   0.6904
  2.3193  1.4122  1.1134  1.1134  0.5306  0.5306  0.1071  0.2673  0.2673  0.2131
  0.2131  0.1967

 Free energy of the ion-electron system (eV)
  ---------------------------------------------------
  alpha Z        PSCENC =       335.40302569
  Ewald energy   TEWEN  =    107495.02027461
  -Hartree energ DENC   =   -124336.73661751
  -exchange      EXHF   =         0.00000000
  -V(xc)+E(xc)   XCENC  =      -562.38856752
  PAW double counting   =     18809.26302090   -17646.74041526
  entropy T*S    EENTRO =        -0.37510134
  eigenvalues    EBANDS =      -421.54344114
  atomic energy  EATOM  =     16228.71987288
  Solvation  Ediel_sol  =         0.00000000
  ---------------------------------------------------
  free energy    TOTEN  =       -99.37794870 eV

  energy without entropy =      -99.00284736  energy(sigma->0) =      -99.25291492


--------------------------------------------------------------------------------------------------------




--------------------------------------- Iteration      1(  18)  ---------------------------------------


    POTLOK:  cpu time    0.0165: real time    0.0166
    SETDIJ:  cpu time    0.0025: real time    0.0025
     EDDAV:  cpu time    4.2536: real time    4.2557
       DOS:  cpu time    0.0050: real time    0.0050
    CHARGE:  cpu time    0.1838: real time    0.1839
    MIXING:  cpu time    0.0017: real time    0.0017
    --------------------------------------------
      LOOP:  cpu time    4.4631: real time    4.4655

 eigenvalue-minimisations  :  5024
 total energy-change (2. order) : 0.3009758E-01  (-0.8841166E-02)
 number of electron     199.9999747 magnetization 
 augmentation part       84.5732676 magnetization 

 Broyden mixing:
  rms(total) = 0.71187E-01    rms(broyden)= 0.71144E-01
  rms(prec ) = 0.77462E-01
  weight for this iteration     100.00

 eigenvalues of (default mixing * dielectric matrix)
  average eigenvalue GAMMA=   0.6969
  2.1350  1.8282  0.9804  0.9012  0.9012  0.5390  0.5390  0.1071  0.2134  0.2134
  0.2603  0.2452  0.1961

 Free energy of the ion-electron system (eV)
  ---------------------------------------------------
  alpha Z        PSCENC =       335.40302569
  Ewald energy   TEWEN  =    107495.02027461
  -Hartree energ DENC   =   -124341.11771413
  -exchange      EXHF   =         0.00000000
  -V(xc)+E(xc)   XCENC  =      -562.37275875
  PAW double counting   =     18817.29409420   -17654.81140083
  entropy T*S    EENTRO =        -0.36622312
  eigenvalues    EBANDS =      -417.11702168
  atomic energy  EATOM  =     16228.71987288
  Solvation  Ediel_sol  =         0.00000000
  ---------------------------------------------------
  free energy    TOTEN  =       -99.34785112 eV

  energy without entropy =      -98.98162800  energy(sigma->0) =      -99.22577675


--------------------------------------------------------------------------------------------------------




--------------------------------------- Iteration      1(  19)  ---------------------------------------


    POTLOK:  cpu time    0.0165: real time    0.0166
    SETDIJ:  cpu time    0.0024: real time    0.0024
     EDDAV:  cpu time    4.2930: real time    4.2938
       DOS:  cpu time    0.0051: real time    0.0051
    CHARGE:  cpu time    0.1853: real time    0.1853
    MIXING:  cpu time    0.0020: real time    0.0020
    --------------------------------------------
      LOOP:  cpu time    4.5043: real time    4.5052

 eigenvalue-minimisations  :  5096
 total energy-change (2. order) : 0.4584314E-02  (-0.1225901E-02)
 number of electron     199.9999747 magnetization 
 augmentation part       84.5569940 magnetization 

 Broyden mixing:
  rms(total) = 0.42783E-01    rms(broyden)= 0.42767E-01
  rms(prec ) = 0.47737E-01
  weight for this iteration     100.00

 eigenvalues of (default mixing * dielectric matrix)
  average eigenvalue GAMMA=   0.6796
  2.0716  1.9924  1.0289  0.9092  0.9092  0.5402  0.5402  0.1071  0.3030  0.2135
  0.2135  0.1962  0.2444  0.2444

 Free energy of the ion-electron system (eV)
  ---------------------------------------------------
  alpha Z        PSCENC =       335.40302569
  Ewald energy   TEWEN  =    107495.02027461
  -Hartree energ DENC   =   -124344.63289132
  -exchange      EXHF   =         0.00000000
  -V(xc)+E(xc)   XCENC  =      -562.34788916
  PAW double counting   =     18820.71044761   -17658.13874822
  entropy T*S    EENTRO =        -0.36443704
  eigenvalues    EBANDS =      -413.71292187
  atomic energy  EATOM  =     16228.71987288
  Solvation  Ediel_sol  =         0.00000000
  ---------------------------------------------------
  free energy    TOTEN  =       -99.34326680 eV

  energy without entropy =      -98.97882977  energy(sigma->0) =      -99.22178779


--------------------------------------------------------------------------------------------------------




--------------------------------------- Iteration      1(  20)  ---------------------------------------


    POTLOK:  cpu time    0.0205: real time    0.0219
    SETDIJ:  cpu time    0.0025: real time    0.0025
     EDDAV:  cpu time    4.4125: real time    4.4148
       DOS:  cpu time    0.0050: real time    0.0050
    CHARGE:  cpu time    0.1857: real time    0.1858
    MIXING:  cpu time    0.0021: real time    0.0021
    --------------------------------------------
      LOOP:  cpu time    4.6283: real time    4.6322

 eigenvalue-minimisations  :  5168
 total energy-change (2. order) : 0.1217877E-02  (-0.3665730E-03)
 number of electron     199.9999747 magnetization 
 augmentation part       84.5510063 magnetization 

 Broyden mixing:
  rms(total) = 0.30438E-01    rms(broyden)= 0.30431E-01
  rms(prec ) = 0.33345E-01
  weight for this iteration     100.00

 eigenvalues of (default mixing * dielectric matrix)
  average eigenvalue GAMMA=   0.7331
  2.0812  1.6883  1.5891  1.1186  1.1186  0.8695  0.5313  0.5313  0.1071  0.2135
  0.2135  0.1961  0.2651  0.2438  0.2294

 Free energy of the ion-electron system (eV)
  ---------------------------------------------------
  alpha Z        PSCENC =       335.40302569
  Ewald energy   TEWEN  =    107495.02027461
  -Hartree energ DENC   =   -124347.05613529
  -exchange      EXHF   =         0.00000000
  -V(xc)+E(xc)   XCENC  =      -562.33891474
  PAW double counting   =     18821.84727449   -17659.24539454
  entropy T*S    EENTRO =        -0.36640387
  eigenvalues    EBANDS =      -411.32564815
  atomic energy  EATOM  =     16228.71987288
  Solvation  Ediel_sol  =         0.00000000
  ---------------------------------------------------
  free energy    TOTEN  =       -99.34204893 eV

  energy without entropy =      -98.97564506  energy(sigma->0) =      -99.21991430


--------------------------------------------------------------------------------------------------------




--------------------------------------- Iteration      1(  21)  ---------------------------------------


    POTLOK:  cpu time    0.0172: real time    0.0173
    SETDIJ:  cpu time    0.0025: real time    0.0025
     EDDAV:  cpu time    4.2978: real time    4.2989
       DOS:  cpu time    0.0050: real time    0.0050
    CHARGE:  cpu time    0.1871: real time    0.1871
    MIXING:  cpu time    0.0022: real time    0.0022
    --------------------------------------------
      LOOP:  cpu time    4.5119: real time    4.5131

 eigenvalue-minimisations  :  5272
 total energy-change (2. order) : 0.9419334E-03  (-0.2273593E-03)
 number of electron     199.9999747 magnetization 
 augmentation part       84.5457651 magnetization 

 Broyden mixing:
  rms(total) = 0.20879E-01    rms(broyden)= 0.20874E-01
  rms(prec ) = 0.26584E-01
  weight for this iteration     100.00

 eigenvalues of (default mixing * dielectric matrix)
  average eigenvalue GAMMA=   0.7401
  2.0775  1.7272  1.7272  1.1971  1.1971  0.6906  0.6906  0.5351  0.5351  0.1071
  0.2135  0.2135  0.2676  0.1960  0.2444  0.2215

 Free energy of the ion-electron system (eV)
  ---------------------------------------------------
  alpha Z        PSCENC =       335.40302569
  Ewald energy   TEWEN  =    107495.02027461
  -Hartree energ DENC   =   -124352.21060269
  -exchange      EXHF   =         0.00000000
  -V(xc)+E(xc)   XCENC  =      -562.32217207
  PAW double counting   =     18826.94374699   -17664.32795818
  entropy T*S    EENTRO =        -0.36385081
  eigenvalues    EBANDS =      -406.20344342
  atomic energy  EATOM  =     16228.71987288
  Solvation  Ediel_sol  =         0.00000000
  ---------------------------------------------------
  free energy    TOTEN  =       -99.34110699 eV

  energy without entropy =      -98.97725618  energy(sigma->0) =      -99.21982339


--------------------------------------------------------------------------------------------------------




--------------------------------------- Iteration      1(  22)  ---------------------------------------


    POTLOK:  cpu time    0.0180: real time    0.0181
    SETDIJ:  cpu time    0.0025: real time    0.0025
     EDDAV:  cpu time    4.4231: real time    4.4256
       DOS:  cpu time    0.0049: real time    0.0049
    CHARGE:  cpu time    0.1852: real time    0.1852
    MIXING:  cpu time    0.0022: real time    0.0022
    --------------------------------------------
      LOOP:  cpu time    4.6359: real time    4.6385

 eigenvalue-minimisations  :  5184
 total energy-change (2. order) : 0.2505723E-03  (-0.1021007E-03)
 number of electron     199.9999747 magnetization 
 augmentation part       84.5442200 magnetization 

 Broyden mixing:
  rms(total) = 0.18016E-01    rms(broyden)= 0.18014E-01
  rms(prec ) = 0.24122E-01
  weight for this iteration     100.00

 eigenvalues of (default mixing * dielectric matrix)
  average eigenvalue GAMMA=   0.7658
  2.1341  2.1341  1.8543  1.0930  1.0930  0.9385  0.9385  0.5351  0.5351  0.1071
  0.2135  0.2135  0.1960  0.2951  0.2718  0.2425  0.2238

 Free energy of the ion-electron system (eV)
  ---------------------------------------------------
  alpha Z        PSCENC =       335.40302569
  Ewald energy   TEWEN  =    107495.02027461
  -Hartree energ DENC   =   -124354.74126916
  -exchange      EXHF   =         0.00000000
  -V(xc)+E(xc)   XCENC  =      -562.31570483
[...]
    104       0.6062      0.35382
    105       0.6562      0.21222
    106       0.7273      0.06483
    107       1.6602     -0.00014
    108       2.3133     -0.00000
    109       2.6501     -0.00000
    110       2.7328     -0.00000
    111       3.1348     -0.00000
    112       3.1736     -0.00000
    113       3.4077     -0.00000
    114       3.9644     -0.00000
    115       3.9669     -0.00000
    116       4.2401     -0.00000
    117       4.7753     -0.00000
    118       5.3066     -0.00000
    119       5.3118     -0.00000
    120       5.8709     -0.00000

 k-point    20 :      -0.4375    0.4375    0.0000
  band No.  band energies     occupation 
      1      -4.6908      2.00000
      2      -4.5914      2.00000
      3      -4.2770      2.00000
      4      -4.1959      2.00000
      5      -4.1431      2.00000
      6      -4.0968      2.00000
      7      -3.9398      2.00000
      8      -3.9179      2.00000
      9      -3.8031      2.00000
     10      -3.7857      2.00000
     11      -3.7547      2.00000
     12      -3.7063      2.00000
     13      -3.6051      2.00000
     14      -3.5242      2.00000
     15      -3.5057      2.00000
     16      -3.4652      2.00000
     17      -3.4303      2.00000
     18      -3.4033      2.00000
     19      -3.3685      2.00000
     20      -3.2825      2.00000
     21      -3.2304      2.00000
     22      -3.1873      2.00000
     23      -3.1430      2.00000
     24      -3.1352      2.00000
     25      -3.0879      2.00000
     26      -3.0285      2.00000
     27      -3.0262      2.00000
     28      -2.9624      2.00000
     29      -2.9549      2.00000
     30      -2.9223      2.00000
     31      -2.7994      2.00000
     32      -2.7728      2.00000
     33      -2.6730      2.00000
     34      -2.6331      2.00000
     35      -2.6046      2.00000
     36      -2.5640      2.00000
     37      -2.5435      2.00000
     38      -2.4636      2.00000
     39      -2.3898      2.00000
     40      -2.3415      2.00000
     41      -2.2922      2.00000
     42      -2.2292      2.00000
     43      -2.2004      2.00000
     44      -2.1214      2.00000
     45      -2.1121      2.00000
     46      -2.0720      2.00000
     47      -2.0076      2.00000
     48      -1.9357      2.00000
     49      -1.9268      2.00000
     50      -1.8855      2.00000
     51      -1.8714      2.00000
     52      -1.8423      2.00000
     53      -1.7904      2.00000
     54      -1.7490      2.00000
     55      -1.7096      2.00000
     56      -1.7020      2.00000
     57      -1.6837      2.00000
     58      -1.6408      2.00000
     59      -1.6251      2.00000
     60      -1.5834      2.00000
     61      -1.5594      2.00000
     62      -1.5046      2.00000
     63      -1.4888      2.00000
     64      -1.4722      2.00000
     65      -1.4522      2.00000
     66      -1.3190      2.00000
     67      -1.2425      2.00000
     68      -1.2018      2.00000
     69      -1.1762      2.00000
     70      -1.1024      2.00000
     71      -1.0789      2.00000
     72      -1.0062      2.00000
     73      -0.9900      2.00001
     74      -0.9741      2.00001
     75      -0.9114      2.00002
     76      -0.8824      2.00003
     77      -0.7906      2.00012
     78      -0.7602      2.00019
     79      -0.7177      2.00034
     80      -0.6911      2.00048
     81      -0.6266      2.00109
     82      -0.5550      2.00250
     83      -0.5272      2.00338
     84      -0.5021      2.00440
     85      -0.4658      2.00632
     86      -0.4584      2.00679
     87      -0.4200      2.00972
     88      -0.3728      2.01462
     89      -0.3072      2.02423
     90      -0.2739      2.03041
     91      -0.2180      2.04241
     92      -0.1154      2.06468
     93      -0.0921      2.06819
     94      -0.0262      2.06955
     95       0.0155      2.06013
     96       0.0743      2.02606
     97       0.1138      1.98558
     98       0.2933      1.57067
     99       0.3099      1.51311
    100       0.3349      1.42125
    101       0.3663      1.29883
    102       0.3857      1.22001
    103       0.5132      0.68860
    104       0.5525      0.53743
    105       0.6135      0.33124
    106       0.6648      0.19123
    107       1.5947     -0.00034
    108       1.8824     -0.00000
    109       2.0546     -0.00000
    110       2.0936     -0.00000
    111       2.6534     -0.00000
    112       3.8962     -0.00000
    113       3.9319     -0.00000
    114       4.0077     -0.00000
    115       4.1115     -0.00000
    116       4.5716     -0.00000
    117       5.4156     -0.00000
    118       5.4381     -0.00000
    119       5.4715     -0.00000
    120       5.9681     -0.00000


--------------------------------------------------------------------------------------------------------


 soft charge-density along one line, spin component           1
         0         1         2         3         4         5         6         7         8         9
 total charge-density along one line
 
 pseudopotential strength for first ion, spin component:           1
 -8.001   0.000  -0.000  -0.005  -0.000  -8.069   0.000  -0.000
  0.000  -8.000  -0.000   0.000  -0.005   0.000  -8.069  -0.000
 -0.000  -0.000  -8.010  -0.000  -0.000  -0.000  -0.000  -8.079
 -0.005   0.000  -0.000  -8.000   0.000  -0.004   0.000  -0.000
 -0.000  -0.005  -0.000   0.000  -8.001  -0.000  -0.004  -0.000
 -8.069   0.000  -0.000  -0.004  -0.000  -8.110   0.000  -0.000
  0.000  -8.069  -0.000   0.000  -0.004   0.000  -8.109  -0.000
 -0.000  -0.000  -8.079  -0.000  -0.000  -0.000  -0.000  -8.119
 -0.004   0.000  -0.000  -8.069   0.000  -0.004   0.000  -0.000
 -0.000  -0.004  -0.000   0.000  -8.069  -0.000  -0.004  -0.000
 -0.000  -0.000   0.001  -0.000  -0.000  -0.000  -0.000   0.001
 -0.000  -0.000   0.001  -0.000  -0.000  -0.000  -0.000   0.001
 -0.000  -0.004   0.000   0.000  -0.000  -0.000  -0.004   0.000
  0.000   0.000  -0.005   0.000   0.000   0.000   0.000  -0.005
 -0.000   0.000   0.000  -0.004  -0.000  -0.000   0.000   0.000
 -0.000  -0.006   0.000   0.000  -0.000  -0.000  -0.006   0.000
  0.000   0.000  -0.007   0.000   0.000   0.000   0.000  -0.007
 -0.000   0.000   0.000  -0.006  -0.000  -0.000   0.000   0.000
 total augmentation occupancy for first ion, spin component:           1
  4.340  -0.000  -0.000   0.083  -0.000  -2.340   0.000   0.000  -0.149   0.000  -0.000  -0.000   0.000   0.000  -0.006  -0.000
  0.000   4.328  -0.000   0.000   0.083   0.000  -2.272   0.000  -0.000  -0.149   0.000  -0.000  -0.014  -0.000  -0.000  -0.002
 -0.000  -0.000   4.276  -0.000  -0.000   0.000   0.000  -2.351   0.000   0.000  -0.021   0.002   0.000  -0.002   0.000   0.000
  0.083   0.000  -0.000   4.328   0.000  -0.149  -0.000   0.000  -2.272  -0.000   0.000   0.000  -0.000  -0.000  -0.014  -0.000
  0.000   0.083  -0.000  -0.000   4.340   0.000  -0.149   0.000   0.000  -2.340  -0.000   0.000  -0.006   0.000  -0.000   0.000
 -2.340   0.000   0.000  -0.149   0.000   2.287  -0.000  -0.000   0.206  -0.000   0.000  -0.000  -0.000   0.000   0.003   0.000
  0.000  -2.272   0.000  -0.000  -0.149  -0.000   2.170  -0.000   0.000   0.206   0.000   0.000   0.007   0.000   0.000   0.000
  0.000   0.000  -2.351   0.000   0.000  -0.000  -0.000   2.360  -0.000  -0.000   0.011   0.002  -0.000  -0.000  -0.000   0.000
 -0.149  -0.000   0.000  -2.272   0.000   0.206   0.000  -0.000   2.170   0.000   0.000   0.000  -0.000   0.000   0.007   0.000
  0.000  -0.149   0.000  -0.000  -2.340  -0.000   0.206  -0.000   0.000   2.287   0.000  -0.000   0.003  -0.000  -0.000  -0.000
 -0.000   0.000  -0.021   0.000  -0.000   0.000   0.000   0.011   0.000   0.000   2.485  -0.506   0.000  -0.010  -0.000   0.000
  0.000  -0.000   0.002   0.000   0.000  -0.000   0.000   0.002  -0.000  -0.000  -0.506   0.109   0.000   0.003  -0.000   0.000
  0.000  -0.014   0.000  -0.000  -0.006  -0.000   0.007  -0.000   0.000   0.003   0.000   0.000   0.212   0.000   0.000  -0.013
  0.000   0.000  -0.002  -0.000   0.000  -0.000   0.000  -0.000   0.000  -0.000  -0.010   0.003   0.000   0.210  -0.000   0.000
 -0.006  -0.000   0.000  -0.014  -0.000   0.003  -0.000  -0.000   0.007   0.000  -0.000  -0.000   0.000  -0.000   0.212  -0.000
  0.000  -0.002  -0.000  -0.000   0.000   0.000   0.000   0.000   0.000  -0.000   0.000   0.000  -0.013   0.000  -0.000   0.001
  0.000   0.000  -0.003  -0.000   0.000  -0.000   0.000   0.001  -0.000  -0.000   0.000  -0.000   0.000  -0.013   0.000   0.000
  0.000  -0.000  -0.000  -0.002  -0.000  -0.000   0.000  -0.000   0.000   0.000   0.000   0.000   0.000   0.000  -0.013   0.000


------------------------ aborting loop because EDIFF is reached ----------------------------------------


 


 total charge     
 
# of ion       s       p       d       tot
------------------------------------------
    1        0.434   0.363   9.163   9.960
    2        0.455   0.329   8.476   9.260
    3        0.456   0.329   8.478   9.262
    4        0.455   0.329   8.472   9.256
    5        0.449   0.324   8.484   9.257
    6        0.474   0.445   8.402   9.321
    7        0.471   0.449   8.439   9.359
    8        0.469   0.454   8.478   9.400
    9        0.474   0.445   8.452   9.370
   10        0.473   0.444   8.447   9.364
   11        0.474   0.444   8.454   9.372
   12        0.474   0.444   8.455   9.373
   13        0.462   0.431   8.471   9.364
   14        0.458   0.437   8.536   9.431
   15        0.466   0.426   8.405   9.297
   16        0.451   0.317   8.501   9.269
   17        0.450   0.317   8.494   9.260
   18        0.453   0.322   8.481   9.256
   19        0.448   0.317   8.488   9.254
   20        0.423   0.406   7.298   8.127
--------------------------------------------------
tot          9.170   7.771 168.873 185.813
 
    CHARGE:  cpu time    0.1843: real time    0.1845
    FORLOC:  cpu time    0.0036: real time    0.0036
    FORNL :  cpu time    0.7651: real time    0.7656
    STRESS:  cpu time    2.1138: real time    2.1165
    FORCOR:  cpu time    0.0197: real time    0.0197
    FORHAR:  cpu time    0.0071: real time    0.0071
    MIXING:  cpu time    0.0036: real time    0.0036
    OFIELD:  cpu time    0.0000: real time    0.0000

  FORCE on cell =-STRESS in cart. coord.  units (eV):
  Direction    XX          YY          ZZ          XY          YZ          ZX
  --------------------------------------------------------------------------------------
  Alpha Z   335.40303   335.40303   335.40303
  Ewald  118614.57690118614.57690************     0.00000     0.00000     0.00000
  Hartree122762.95342122762.95342************     0.00000    -0.00000    -0.00000
  E(xc)   -1041.30048 -1041.30048 -1045.96991    -0.00000     0.00000     0.00000
  Local  ************************247468.73927     0.00119    -0.00009    -0.00015
  n-local   -60.80538  -115.41692  -106.41366   -15.14763    -2.22962     1.21247
  augment  1479.34464  1479.34566  1502.62978    -0.00088     0.00003     0.00004
  Kinetic  2700.69856  2675.34326  2730.98097    -6.86157    -3.76396     2.24905
  Fock        0.00000     0.00000     0.00000     0.00000     0.00000     0.00000
  -------------------------------------------------------------------------------------
  Total      -8.91763    -8.91763    -2.24441    -0.00000     0.00000     0.00000
  in kB     -18.26116   -18.26116    -4.59600    -0.00000     0.00000     0.00000
  external pressure =      -13.71 kB  Pullay stress =        0.00 kB


 VOLUME and BASIS-vectors are now :
 -----------------------------------------------------------------------------
  energy-cutoff  :      350.00
  volume of cell :      782.41
      direct lattice vectors                 reciprocal lattice vectors
     5.572001436  0.000000000  0.000000000     0.179468726 -0.103616317  0.000000000
     2.786000718  4.825494793  0.000000000     0.000000000  0.207232635  0.000000000
     0.000000000  0.000000000 29.099040242     0.000000000  0.000000000  0.034365395

  length of vectors
     5.572001436  5.572001436 29.099040242     0.207232635  0.207232635  0.034365395


 FORCES acting on ions
    electron-ion (+dipol)            ewald-force                    non-local-force                 convergence-correction
 -----------------------------------------------------------------------------------------------
   -.173E-06 -.997E-07 -.178E+04   -.358E-11 -.211E-11 0.178E+04   0.347E-17 0.347E-17 -.267E-01   -.102E-08 -.591E-09 -.239E-01
   -.488E+01 -.282E+01 0.326E+04   0.516E+01 0.298E+01 -.326E+04   -.141E+00 -.812E-01 -.263E+01   0.646E-03 0.373E-03 0.568E-02
   0.488E+01 -.282E+01 0.326E+04   -.516E+01 0.298E+01 -.326E+04   0.141E+00 -.812E-01 -.263E+01   -.646E-03 0.373E-03 0.568E-02
   0.176E-06 0.563E+01 0.326E+04   -.131E-11 -.596E+01 -.326E+04   0.000E+00 0.162E+00 -.263E+01   -.298E-08 -.746E-03 0.568E-02
   -.315E-07 -.182E-07 0.327E+04   -.828E-12 -.466E-12 -.326E+04   -.347E-17 0.000E+00 -.247E+01   0.713E-09 0.412E-09 0.495E-02
   0.292E+00 -.168E+00 0.166E+04   -.272E+00 0.157E+00 -.166E+04   -.235E-02 0.136E-02 -.745E-01   -.668E-03 0.386E-03 -.846E-02
   -.292E+00 -.168E+00 0.166E+04   0.272E+00 0.157E+00 -.166E+04   0.235E-02 0.136E-02 -.745E-01   0.668E-03 0.386E-03 -.846E-02
   -.806E-06 0.337E+00 0.166E+04   -.775E-13 -.314E+00 -.166E+04   0.260E-17 -.271E-02 -.745E-01   0.158E-09 -.772E-03 -.846E-02
   0.493E-06 -.116E+02 0.587E+02   0.306E-11 0.120E+02 -.591E+02   -.347E-17 -.143E+00 0.850E-01   -.780E-09 0.395E-03 -.249E-01
   0.925E-06 0.534E-06 0.484E+02   0.356E-11 0.200E-11 -.482E+02   0.000E+00 0.000E+00 -.137E+00   0.293E-10 0.169E-10 -.246E-01
   0.100E+02 0.578E+01 0.587E+02   -.104E+02 -.598E+01 -.591E+02   0.124E+00 0.716E-01 0.850E-01   -.342E-03 -.197E-03 -.249E-01
   -.100E+02 0.578E+01 0.587E+02   0.104E+02 -.598E+01 -.591E+02   -.124E+00 0.716E-01 0.850E-01   0.342E-03 -.197E-03 -.249E-01
   -.271E+00 -.157E+00 -.162E+04   0.272E+00 0.157E+00 0.162E+04   -.200E-01 -.115E-01 0.135E+00   -.732E-04 -.423E-04 -.217E-01
   0.271E+00 -.157E+00 -.162E+04   -.272E+00 0.157E+00 0.162E+04   0.200E-01 -.115E-01 0.135E+00   0.732E-04 -.423E-04 -.217E-01
   0.176E-06 0.313E+00 -.162E+04   -.327E-11 -.314E+00 0.162E+04   -.260E-17 0.231E-01 0.135E+00   0.239E-09 0.845E-04 -.217E-01
   0.488E+01 -.282E+01 -.328E+04   -.512E+01 0.296E+01 0.328E+04   0.140E+00 -.807E-01 0.249E+01   0.325E-03 -.187E-03 -.390E-02
   -.488E+01 -.282E+01 -.328E+04   0.512E+01 0.296E+01 0.328E+04   -.140E+00 -.807E-01 0.249E+01   -.325E-03 -.187E-03 -.390E-02
   -.329E-06 -.190E-06 -.328E+04   0.126E-11 0.778E-12 0.327E+04   -.379E-18 0.325E-18 0.259E+01   -.186E-09 -.107E-09 -.351E-02
   -.492E-06 0.564E+01 -.328E+04   0.788E-12 -.591E+01 0.328E+04   0.000E+00 0.161E+00 0.249E+01   0.708E-08 0.375E-03 -.390E-02
   0.871E-06 0.503E-06 0.150E+04   -.402E-13 0.657E-13 -.150E+04   -.347E-17 0.694E-17 -.910E-01   0.540E-09 0.312E-09 -.812E-02
 -----------------------------------------------------------------------------------------------
   -.638E-06 -.369E-06 0.344E+00   0.180E-12 0.213E-13 0.114E-11   0.107E-15 0.347E-16 -.117E+00   0.101E-08 0.586E-09 -.215E+00
 
 
 POSITION                                       TOTAL-FORCE (eV/Angst)
 -----------------------------------------------------------------------------------
      4.17900      4.02125     16.81912         0.000000      0.000000      0.078608
      5.57200      1.60850     10.00000         0.144564      0.083464      0.121074
      2.78600      1.60850     10.00000        -0.144564      0.083464      0.121074
      6.96500      4.02125     10.00000        -0.000000     -0.166928      0.121074
      4.17900      4.02125     10.00000         0.000000      0.000000     -0.026868
      0.00000      0.00000     12.27476         0.016752     -0.009672      0.099262
      2.78600      0.00000     12.27476        -0.016752     -0.009672      0.099262
      4.17900      2.41275     12.27476         0.000000      0.019344      0.099262
      1.39300      0.80425     14.54918        -0.000000      0.262061     -0.301616
      4.17900      0.80425     14.54918         0.000000      0.000000      0.025863
      2.78600      3.21700     14.54918        -0.226951     -0.131030     -0.301616
      5.57200      3.21700     14.54918         0.226951     -0.131030     -0.301616
      5.57200      1.60850     16.81912        -0.019523     -0.011271      0.009505
      2.78600      1.60850     16.81912         0.019523     -0.011271      0.009505
      6.96500      4.02125     16.81912         0.000000      0.022543      0.009505
      0.00000      0.00000     19.10025        -0.098244      0.056721      0.101571
      2.78600      0.00000     19.10025         0.098244      0.056721      0.101571
      1.39300      2.41275     19.10025         0.000000      0.000000     -0.010322
      4.17900      2.41275     19.10025         0.000000     -0.113443      0.101571
      1.39300      2.41275     12.27476         0.000000      0.000000     -0.156669
 -----------------------------------------------------------------------------------
    total drift:                               -0.000001     -0.000000      0.012412


--------------------------------------------------------------------------------------------------------



  FREE ENERGIE OF THE ION-ELECTRON SYSTEM (eV)
  ---------------------------------------------------
  free  energy   TOTEN  =       -99.34180817 eV

  energy  without entropy=      -98.97786106  energy(sigma->0) =      -99.22049247
 


--------------------------------------------------------------------------------------------------------


    POTLOK:  cpu time    0.0194: real time    0.0194


--------------------------------------------------------------------------------------------------------


     LOOP+:  cpu time  149.8236: real time  149.9758
    4ORBIT:  cpu time    0.0000: real time    0.0000
 


 total charge     
 
# of ion       s       p       d       tot
------------------------------------------
    1        0.434   0.363   9.163   9.960
    2        0.455   0.329   8.476   9.260
    3        0.456   0.329   8.478   9.262
    4        0.455   0.329   8.472   9.256
    5        0.449   0.324   8.484   9.257
    6        0.474   0.445   8.402   9.321
    7        0.471   0.449   8.439   9.359
    8        0.469   0.454   8.478   9.400
    9        0.474   0.445   8.452   9.370
   10        0.473   0.444   8.447   9.364
   11        0.474   0.444   8.454   9.372
   12        0.474   0.444   8.455   9.373
   13        0.462   0.431   8.471   9.364
   14        0.458   0.437   8.536   9.431
   15        0.466   0.426   8.405   9.297
   16        0.451   0.317   8.501   9.269
   17        0.450   0.317   8.494   9.260
   18        0.453   0.322   8.481   9.256
   19        0.448   0.317   8.488   9.254
   20        0.423   0.406   7.298   8.127
--------------------------------------------------
tot          9.170   7.771 168.873 185.813
 

 total amount of memory used by VASP MPI-rank0    52655. kBytes
=======================================================================

   base      :      30000. kBytes
   nonlr-proj:       1756. kBytes
   fftplans  :       1542. kBytes
   grid      :       2646. kBytes
   one-center:         46. kBytes
   wavefun   :      16665. kBytes
 
  
  
 General timing and accounting informations for this job:
 ========================================================
  
                  Total CPU time used (sec):      153.222
                            User time (sec):      141.982
                          System time (sec):       11.241
                         Elapsed time (sec):      154.162
  
                   Maximum memory used (kb):       89128.
                   Average memory used (kb):           0.
  
                          Minor page faults:        52087
                          Major page faults:            0
                 Voluntary context switches:          700
