       N       E                     dE             d eps       ncg     rms          rms(c)
DAV:   1     0.976644196640E+03    0.97664E+03   -0.56607E+04 10032   0.103E+03
DAV:   2    -0.183931787516E+02   -0.99504E+03   -0.91669E+03 12328   0.261E+02
DAV:   3    -0.947888788588E+02   -0.76396E+02   -0.68979E+02 11904   0.704E+01
DAV:   4    -0.979928568175E+02   -0.32040E+01   -0.30727E+01 13552   0.151E+01
DAV:   5    -0.980748527028E+02   -0.81996E-01   -0.81695E-01 12904   0.236E+00    0.429E+01
DAV:   6    -0.968577806869E+02    0.12171E+01   -0.21991E+01 11840   0.234E+01    0.371E+01
DAV:   7    -0.137868283421E+03   -0.41011E+02   -0.86969E+01 15600   0.735E+01    0.539E+01
DAV:   8    -0.123836905368E+03    0.14031E+02   -0.59732E+01 14032   0.457E+01    0.455E+01
DAV:   9    -0.108730615642E+03    0.15106E+02   -0.38131E+01 16576   0.435E+01    0.299E+01
DAV:  10    -0.973438213584E+02    0.11387E+02   -0.29920E+01 14000   0.316E+01    0.214E+01
DAV:  11    -0.923261575018E+02    0.50177E+01   -0.17469E+01 14496   0.196E+01    0.959E+00
DAV:  12    -0.919587189775E+02    0.36744E+00   -0.25595E+00 14032   0.788E+00    0.614E+00
DAV:  13    -0.918922717217E+02    0.66447E-01   -0.41214E-01 12808   0.332E+00    0.461E+00
DAV:  14    -0.918684489404E+02    0.23823E-01   -0.18368E-01 11256   0.262E+00    0.402E+00
DAV:  15    -0.919392503520E+02   -0.70801E-01   -0.29544E-01 12400   0.249E+00    0.392E+00
DAV:  16    -0.918292153255E+02    0.11004E+00   -0.31546E-01 11832   0.264E+00    0.156E+00
DAV:  17    -0.918034559841E+02    0.25759E-01   -0.47788E-02 13504   0.127E+00    0.627E-01
DAV:  18    -0.918015232266E+02    0.19328E-02   -0.88354E-03 12344   0.508E-01    0.488E-01
DAV:  19    -0.918007480376E+02    0.77519E-03   -0.36427E-03 12776   0.297E-01    0.392E-01
DAV:  20    -0.917994869948E+02    0.12610E-02   -0.32271E-03 12296   0.300E-01    0.287E-01
DAV:  21    -0.917989378415E+02    0.54915E-03   -0.15352E-03 11784   0.185E-01    0.118E-01
DAV:  22    -0.917989141421E+02    0.23699E-04   -0.46329E-04 12816   0.100E-01    0.124E-01
DAV:  23    -0.917987768163E+02    0.13733E-03   -0.21427E-04 12016   0.787E-02    0.380E-02
DAV:  24    -0.917987889607E+02   -0.12144E-04   -0.47011E-05  8344   0.321E-02    0.325E-02
DAV:  25    -0.917987950405E+02   -0.60798E-05   -0.15941E-05  6144   0.214E-02
   1 F= -.91798750E+02 E0= -.91795423E+02  d E =-.997983E-02
