 vasp.5.4.4.18Apr17-6-g9f103f2a35 (build Apr 28 2017 10:53:45) complex          
  
 executed on             LinuxIFC date 2019.07.18  17:51:02
 running on   16 total cores
 distrk:  each k-point on   16 cores,    1 groups
 distr:  one band on NCORES_PER_BAND=   4 cores,    4 groups


--------------------------------------------------------------------------------------------------------


 INCAR:
 POTCAR:    PAW_PBE Au 04Oct2007                  
 POTCAR:    PAW_PBE Ir 06Sep2000                  
 POTCAR:    PAW_PBE Pt 04Feb2005                  
 POTCAR:    PAW_PBE Au 04Oct2007                  
   VRHFIN =Au: s1d10                                                            
   LEXCH  = PE                                                                  
   EATOM  =   926.0867 eV,   68.0654 Ry                                         
                                                                                
   TITEL  = PAW_PBE Au 04Oct2007                                                
   LULTRA =        F    use ultrasoft PP ?                                      
   IUNSCR =        1    unscreen: 0-lin 1-nonlin 2-no                           
   RPACOR =    2.330    partial core radius                                     
   POMASS =  196.966; ZVAL   =   11.000    mass and valenz                      
   RCORE  =    2.500    outmost cutoff radius                                   
   RWIGS  =    2.840; RWIGS  =    1.503    wigner-seitz radius (au A)           
   ENMAX  =  229.943; ENMIN  =  172.457 eV                                      
   ICORE  =        3    local potential                                         
   LCOR   =        T    correct aug charges                                     
   LPAW   =        T    paw PP                                                  
   EAUG   =  356.670                                                            
   DEXC   =    0.000                                                            
   RMAX   =    2.562    core radius for proj-oper                               
   RAUG   =    1.300    factor for augmentation sphere                          
   RDEP   =    2.598    radius for radial grids                                 
   RDEPT  =    2.193    core radius for aug-charge                              
                                                                                
   Atomic configuration                                                         
   16 entries                                                                   
     n  l   j            E        occ.                                          
     1  0  0.50    -80748.5001   2.0000                                         
     2  0  0.50    -14244.7466   2.0000                                         
     2  1  1.50    -12310.9591   6.0000                                         
     3  0  0.50     -3362.1768   2.0000                                         
     3  1  1.50     -2801.5463   6.0000                                         
     3  2  2.50     -2203.8206  10.0000                                         
     4  0  0.50      -729.8168   2.0000                                         
     4  1  1.50      -546.0527   6.0000                                         
     4  2  2.50      -325.7302  10.0000                                         
     4  3  3.50       -81.1472  14.0000                                         
     5  0  0.50      -108.3201   2.0000                                         
     5  1  1.50       -59.7479   6.0000                                         
     5  2  2.50        -6.8783  10.0000                                         
     6  0  0.50        -5.7602   1.0000                                         
     6  1  1.50        -6.8029   0.0000                                         
     5  3  2.50        -1.3606   0.0000                                         
   Description                                                                  
     l       E           TYP  RCUT    TYP  RCUT                                 
     2     -6.8782861     23  2.500                                             
     2     -8.2388687     23  2.500                                             
     0     -5.7601759     23  2.500                                             
     0     -0.8493231     23  2.500                                             
     1     -2.7211652     23  2.500                                             
     1     27.2116520     23  2.500                                             
     3     -1.3605826     23  2.500                                             
  local pseudopotential read in
  partial core-charges read in
  partial kinetic energy density read in
  atomic valenz-charges read in
  non local Contribution for L=           2  read in
    real space projection operators read in
  non local Contribution for L=           2  read in
    real space projection operators read in
  non local Contribution for L=           0  read in
    real space projection operators read in
  non local Contribution for L=           0  read in
    real space projection operators read in
  non local Contribution for L=           1  read in
    real space projection operators read in
  non local Contribution for L=           1  read in
    real space projection operators read in
    PAW grid and wavefunctions read in
 
   number of l-projection  operators is LMAX  =           6
   number of lm-projection operators is LMMAX =          18
 
 POTCAR:    PAW_PBE Ir 06Sep2000                  
   VRHFIN =Ir: s1d8                                                             
   LEXCH  = PE                                                                  
   EATOM  =   560.1833 eV,   41.1723 Ry                                         
                                                                                
   TITEL  = PAW_PBE Ir 06Sep2000                                                
   LULTRA =        F    use ultrasoft PP ?                                      
   IUNSCR =        1    unscreen: 0-lin 1-nonlin 2-no                           
   RPACOR =    2.250    partial core radius                                     
   POMASS =  192.220; ZVAL   =    9.000    mass and valenz                      
   RCORE  =    2.600    outmost cutoff radius                                   
   RWIGS  =    2.690; RWIGS  =    1.423    wigner-seitz radius (au A)           
   ENMAX  =  210.864; ENMIN  =  158.148 eV                                      
   RCLOC  =    1.857    cutoff for local pot                                    
   LCOR   =        T    correct aug charges                                     
   LPAW   =        T    paw PP                                                  
   EAUG   =  318.962                                                            
   DEXC   =    0.000                                                            
   RMAX   =    2.667    core radius for proj-oper                               
   RAUG   =    1.300    factor for augmentation sphere                          
   RDEP   =    2.748    radius for radial grids                                 
   RDEPT  =    2.300    core radius for aug-charge                              
                                                                                
   Atomic configuration                                                         
   16 entries                                                                   
     n  l   j            E        occ.                                          
     1  0  0.50    -76100.0449   2.0000                                         
     2  0  0.50    -13308.1683   2.0000                                         
     2  1  1.50    -11558.0021   6.0000                                         
     3  0  0.50     -3110.7274   2.0000                                         
     3  1  1.50     -2599.2109   6.0000                                         
     3  2  2.50     -2037.1515  10.0000                                         
     4  0  0.50      -661.6001   2.0000                                         
     4  1  1.50      -493.8981   6.0000                                         
     4  2  2.50      -288.1909  10.0000                                         
     4  3  3.50       -59.5718  14.0000                                         
     5  0  0.50       -95.3879   2.0000                                         
     5  1  1.50       -52.2747   6.0000                                         
     5  2  2.50        -5.4180   8.0000                                         
     6  0  0.50        -5.5479   1.0000                                         
     6  1  1.50        -6.8029   0.0000                                         
     5  3  2.50        -1.3606   0.0000                                         
   Description                                                                  
     l       E           TYP  RCUT    TYP  RCUT                                 
     2     -5.4179967     23  2.600                                             
     2     -6.7785793     23  2.600                                             
     0     -5.5478636     23  2.600                                             
     0      2.2542272     23  2.600                                             
     1     -2.7211652     23  2.600                                             
     1     20.4087390     23  2.600                                             
  local pseudopotential read in
  partial core-charges read in
  partial kinetic energy density read in
  atomic valenz-charges read in
  non local Contribution for L=           2  read in
    real space projection operators read in
  non local Contribution for L=           2  read in
    real space projection operators read in
  non local Contribution for L=           0  read in
    real space projection operators read in
  non local Contribution for L=           0  read in
    real space projection operators read in
  non local Contribution for L=           1  read in
    real space projection operators read in
  non local Contribution for L=           1  read in
    real space projection operators read in
    PAW grid and wavefunctions read in
 
   number of l-projection  operators is LMAX  =           6
   number of lm-projection operators is LMMAX =          18
 
 POTCAR:    PAW_PBE Pt 04Feb2005                  
   VRHFIN =Pt: s1d9                                                             
   LEXCH  = PE                                                                  
   EATOM  =   729.1176 eV,   53.5886 Ry                                         
                                                                                
   TITEL  = PAW_PBE Pt 04Feb2005                                                
   LULTRA =        F    use ultrasoft PP ?                                      
   IUNSCR =        1    unscreen: 0-lin 1-nonlin 2-no                           
   RPACOR =    2.330    partial core radius                                     
   POMASS =  195.080; ZVAL   =   10.000    mass and valenz                      
   RCORE  =    2.600    outmost cutoff radius                                   
   RWIGS  =    2.750; RWIGS  =    1.455    wigner-seitz radius (au A)           
   ENMAX  =  230.283; ENMIN  =  172.712 eV                                      
   ICORE  =        3    local potential                                         
   LCOR   =        T    correct aug charges                                     
   LPAW   =        T    paw PP                                                  
   EAUG   =  358.966                                                            
   DEXC   =    0.000                                                            
   RMAX   =    2.658    core radius for proj-oper                               
   RAUG   =    1.300    factor for augmentation sphere                          
   RDEP   =    2.761    radius for radial grids                                 
   RDEPT  =    2.203    core radius for aug-charge                              
                                                                                
   Atomic configuration                                                         
   16 entries                                                                   
     n  l   j            E        occ.                                          
     1  0  0.50    -78401.1885   2.0000                                         
     2  0  0.50    -13770.7750   2.0000                                         
     2  1  1.50    -11931.0468   6.0000                                         
     3  0  0.50     -3234.7234   2.0000                                         
     3  1  1.50     -2699.2216   6.0000                                         
     3  2  2.50     -2119.5714  10.0000                                         
     4  0  0.50      -695.1528   2.0000                                         
     4  1  1.50      -519.6034   6.0000                                         
     4  2  2.50      -306.6786  10.0000                                         
     4  3  3.50       -70.1041  14.0000                                         
     5  0  0.50      -101.7747   2.0000                                         
     5  1  1.50       -55.9873   6.0000                                         
     5  2  2.50        -6.1423   9.0000                                         
     6  0  0.50        -5.6573   1.0000                                         
     6  1  1.50        -6.8029   0.0000                                         
     5  3  2.50        -1.3606   0.0000                                         
   Description                                                                  
     l       E           TYP  RCUT    TYP  RCUT                                 
     2     -6.1423404     23  2.500                                             
     2     -7.5029230     23  2.500                                             
     0     -5.6573207     23  2.500                                             
     0      0.7416693     23  2.500                                             
     1     -2.7211652     23  2.600                                             
     1     20.4087390     23  2.600                                             
     3     -1.3605826     23  2.500                                             
  local pseudopotential read in
  partial core-charges read in
  partial kinetic energy density read in
  atomic valenz-charges read in
  non local Contribution for L=           2  read in
    real space projection operators read in
  non local Contribution for L=           2  read in
    real space projection operators read in
  non local Contribution for L=           0  read in
    real space projection operators read in
  non local Contribution for L=           0  read in
    real space projection operators read in
  non local Contribution for L=           1  read in
    real space projection operators read in
  non local Contribution for L=           1  read in
    real space projection operators read in
    PAW grid and wavefunctions read in
 
   number of l-projection  operators is LMAX  =           6
   number of lm-projection operators is LMMAX =          18
 
 Optimization of the real space projectors (new method)

 maximal supplied QI-value         = 15.12
 optimisation between [QCUT,QGAM] = [  9.52, 19.05] = [ 25.40,101.61] Ry 
 Optimized for a Real-space Cutoff    1.57 Angstroem

   l    n(q)    QCUT    max X(q) W(low)/X(q) W(high)/X(q)  e(spline) 
   2      8     9.524    60.898    0.38E-03    0.43E-04    0.84E-07
   2      8     9.524    58.894    0.38E-03    0.47E-04    0.88E-07
   0      9     9.524   109.617    0.60E-04    0.64E-04    0.80E-07
   0      9     9.524    75.026    0.59E-04    0.62E-04    0.78E-07
   1      8     9.524    16.344    0.99E-04    0.18E-03    0.87E-07
   1      8     9.524    10.160    0.78E-04    0.15E-03    0.74E-07
 Optimization of the real space projectors (new method)

 maximal supplied QI-value         = 14.36
 optimisation between [QCUT,QGAM] = [  9.48, 19.10] = [ 25.16,102.17] Ry 
 Optimized for a Real-space Cutoff    1.57 Angstroem

   l    n(q)    QCUT    max X(q) W(low)/X(q) W(high)/X(q)  e(spline) 
   2      8     9.479   134.116    0.18E-03    0.75E-03    0.26E-06
   2      8     9.479   130.192    0.18E-03    0.75E-03    0.27E-06
   0      9     9.479    60.310    0.39E-03    0.24E-03    0.63E-07
   0      9     9.479    39.218    0.36E-03    0.22E-03    0.59E-07
   1      8     9.479    18.439    0.20E-03    0.15E-03    0.16E-06
   1      8     9.479    12.760    0.16E-03    0.11E-03    0.13E-06
 Optimization of the real space projectors (new method)

 maximal supplied QI-value         = 14.36
 optimisation between [QCUT,QGAM] = [  9.48, 19.10] = [ 25.16,102.17] Ry 
 Optimized for a Real-space Cutoff    1.57 Angstroem

   l    n(q)    QCUT    max X(q) W(low)/X(q) W(high)/X(q)  e(spline) 
   2      8     9.479    66.195    0.35E-03    0.53E-04    0.87E-07
   2      8     9.479    64.643    0.35E-03    0.57E-04    0.91E-07
   0      9     9.479    95.520    0.50E-04    0.62E-04    0.81E-07
   0      9     9.479    63.403    0.49E-04    0.60E-04    0.78E-07
   1      8     9.479    19.961    0.10E-03    0.87E-04    0.11E-06
   1      8     9.479    13.289    0.88E-04    0.71E-04    0.97E-07
  PAW_PBE Au 04Oct2007                  :
 energy of atom  1       EATOM= -926.0867
 kinetic energy error for atom=    0.0152 (will be added to EATOM!!)
  PAW_PBE Ir 06Sep2000                  :
 energy of atom  2       EATOM= -560.1833
 kinetic energy error for atom=    0.0056 (will be added to EATOM!!)
  PAW_PBE Pt 04Feb2005                  :
 energy of atom  3       EATOM= -729.1176
 kinetic energy error for atom=    0.0144 (will be added to EATOM!!)
 
 
 POSCAR: Au Ir Pt                                
  positions in cartesian coordinates
  No initial velocities read in
 exchange correlation table for  LEXCH =        8
   RHO(1)=    0.500       N(1)  =     2000
   RHO(2)=  100.500       N(2)  =     4000
 


--------------------------------------------------------------------------------------------------------


 ion  position               nearest neighbor table
   1  0.333  0.833  0.544-  11 2.77  10 2.77  11 2.77  10 2.77  12 2.77  12 2.77   6 2.81   9 2.81
                             8 2.81  14 2.83  13 2.83  16 2.83
   2  0.500  0.000  0.373-   5 2.77   4 2.77   5 2.77   4 2.77   3 2.77   3 2.77   7 2.77   6 2.77
                             9 2.77
   3  0.000  0.000  0.373-   4 2.77   4 2.77   5 2.77   5 2.77   2 2.77   2 2.77   6 2.77   7 2.77
                             8 2.77
   4  0.000  0.500  0.373-   3 2.77   2 2.77   3 2.77   2 2.77   5 2.77   5 2.77   8 2.77   6 2.77
                             9 2.77
   5  0.500  0.500  0.373-   2 2.77   2 2.77   3 2.77   3 2.77   4 2.77   4 2.77   9 2.77   8 2.77
                             7 2.77
   6  0.167  0.167  0.458-   8 2.77   8 2.77   9 2.77   9 2.77   7 2.77   7 2.77   3 2.77   2 2.77
                             4 2.77   1 2.81  10 2.81  11 2.81
   7  0.667  0.167  0.458-   9 2.77   8 2.77   9 2.77   8 2.77   6 2.77   6 2.77   2 2.77   3 2.77
                             5 2.77  11 2.81  12 2.81  10 2.81
   8  0.167  0.667  0.458-   6 2.77   6 2.77   7 2.77   7 2.77   9 2.77   9 2.77   4 2.77   3 2.77
                             5 2.77  11 2.81  12 2.81   1 2.81
   9  0.667  0.667  0.458-   7 2.77   6 2.77   7 2.77   6 2.77   8 2.77   8 2.77   5 2.77   4 2.77
                             2 2.77   1 2.81  10 2.81  12 2.81
  10  0.833  0.333  0.544-  12 2.77   1 2.77  12 2.77   1 2.77  11 2.77  11 2.77   6 2.81   9 2.81
                             7 2.81  15 2.83  13 2.83  16 2.83
  11  0.333  0.333  0.544-   1 2.77   1 2.77  12 2.77  12 2.77  10 2.77  10 2.77   8 2.81   7 2.81
                             6 2.81  16 2.83  15 2.83  14 2.83
  12  0.833  0.833  0.544-  10 2.77  10 2.77  11 2.77  11 2.77   1 2.77   1 2.77   8 2.81   7 2.81
                             9 2.81  13 2.83  14 2.83  15 2.83
  13  0.000  0.000  0.631-  15 2.77  15 2.77  16 2.77  16 2.77  14 2.77  14 2.77  12 2.83  10 2.83
                             1 2.83
  14  0.500  0.000  0.631-  16 2.77  15 2.77  16 2.77  15 2.77  13 2.77  13 2.77   1 2.83  11 2.83
                            12 2.83
  15  0.000  0.500  0.631-  13 2.77  13 2.77  14 2.77  14 2.77  16 2.77  16 2.77  10 2.83  11 2.83
                            12 2.83
  16  0.500  0.500  0.631-  14 2.77  13 2.77  14 2.77  13 2.77  15 2.77  15 2.77  11 2.83  10 2.83
                             1 2.83
 
  LATTYP: Found a hexagonal cell.
 ALAT       =     5.5437171645
 C/A-ratio  =     4.8324325305
  
  Lattice vectors:
  
 A1 = (   2.7718585823,  -4.8009998959,   0.0000000000)
 A2 = (  -5.5437171645,   0.0000000000,   0.0000000000)
 A3 = (   0.0000000000,   0.0000000000, -26.7896391657)


Analysis of symmetry for initial positions (statically):
=====================================================================
 Subroutine PRICEL returns:
 Original cell was already a primitive cell.
 

 Routine SETGRP: Setting up the symmetry group for a 
 hexagonal supercell.


 Subroutine GETGRP returns: Found  2 space group operations
 (whereof  1 operations were pure point group operations)
 out of a pool of 24 trial point group operations.


The static configuration has the point symmetry C_1 .
 The point group associated with its full space group is C_1h.


Analysis of symmetry for dynamics (positions and initial velocities):
=====================================================================
 Subroutine PRICEL returns:
 Original cell was already a primitive cell.
 

 Routine SETGRP: Setting up the symmetry group for a 
 hexagonal supercell.


 Subroutine GETGRP returns: Found  2 space group operations
 (whereof  1 operations were pure point group operations)
 out of a pool of 24 trial point group operations.


The dynamic configuration has the point symmetry C_1 .
 The point group associated with its full space group is C_1h.


Analysis of constrained symmetry for selective dynamics:
=====================================================================
 Subroutine PRICEL returns:
 Original cell was already a primitive cell.
 

 Routine SETGRP: Setting up the symmetry group for a 
 hexagonal supercell.


 Subroutine GETGRP returns: Found  2 space group operations
 (whereof  1 operations were pure point group operations)
 out of a pool of 24 trial point group operations.


The constrained configuration has the point symmetry C_1 .
 The point group associated with its full space group is C_1h.


 Subroutine INISYM returns: Found  2 space group operations
 (whereof  1 operations are pure point group operations),
 and found     1 'primitive' translations

 
 
 KPOINTS: 0.4.Ir1.Au11                            

Automatic generation of k-mesh.
Space group operators:
 irot       det(A)        alpha          n_x          n_y          n_z        tau_x        tau_y        tau_z
    1     1.000000     0.000001     1.000000     0.000000     0.000000     0.000000     0.000000     0.000000
    2    -1.000000   180.000000     0.500000    -0.866025     0.000000     0.500000    -0.500000     0.000000
 
 Subroutine IBZKPT returns following result:
 ===========================================
 
 Found     52 irreducible k-points:
 
 Following reciprocal coordinates:
            Coordinates               Weight
  0.062500  0.062500  0.000000     16.000000
  0.000000  0.062500  0.000000     32.000000
  0.187500  0.062500  0.000000     32.000000
  0.125000  0.187500  0.000000     32.000000
 -0.062500  0.125000  0.000000     32.000000
  0.312500  0.062500  0.000000     32.000000
  0.250000  0.312500  0.000000     32.000000
 -0.062500  0.250000  0.000000     32.000000
  0.437500  0.062500  0.000000     32.000000
  0.375000  0.437500  0.000000     32.000000
 -0.062500  0.375000  0.000000     32.000000
 -0.437500  0.062500  0.000000     32.000000
  0.500000 -0.437500  0.000000     32.000000
 -0.062500  0.500000  0.000000     32.000000
 -0.312500  0.062500  0.000000     32.000000
 -0.375000 -0.312500  0.000000     32.000000
 -0.062500 -0.375000  0.000000     32.000000
 -0.187500  0.062500  0.000000     32.000000
 -0.250000 -0.187500  0.000000     32.000000
 -0.062500 -0.250000  0.000000     32.000000
 -0.062500  0.062500  0.000000     16.000000
 -0.125000 -0.062500  0.000000     32.000000
  0.187500  0.187500  0.000000     16.000000
  0.000000  0.187500  0.000000     32.000000
  0.312500  0.187500  0.000000     32.000000
  0.125000  0.312500  0.000000     32.000000
 -0.187500  0.125000  0.000000     32.000000
  0.437500  0.187500  0.000000     32.000000
  0.250000  0.437500  0.000000     32.000000
 -0.187500  0.250000  0.000000     32.000000
 -0.437500  0.187500  0.000000     32.000000
  0.375000 -0.437500  0.000000     32.000000
 -0.187500  0.375000  0.000000     32.000000
 -0.312500  0.187500  0.000000     32.000000
  0.500000 -0.312500  0.000000     32.000000
 -0.187500  0.500000  0.000000     32.000000
 -0.187500  0.187500  0.000000     16.000000
 -0.375000 -0.187500  0.000000     32.000000
  0.312500  0.312500  0.000000     16.000000
  0.000000  0.312500  0.000000     32.000000
  0.437500  0.312500  0.000000     32.000000
  0.125000  0.437500  0.000000     32.000000
 -0.312500  0.125000  0.000000     32.000000
 -0.437500  0.312500  0.000000     32.000000
  0.250000 -0.437500  0.000000     32.000000
 -0.312500  0.250000  0.000000     32.000000
 -0.312500  0.312500  0.000000     16.000000
  0.375000 -0.312500  0.000000     32.000000
  0.437500  0.437500  0.000000     16.000000
  0.000000  0.437500  0.000000     32.000000
 -0.437500  0.437500  0.000000     16.000000
  0.125000 -0.437500  0.000000     32.000000
 
 Following cartesian coordinates:
            Coordinates               Weight
  0.011274  0.006509  0.000000     16.000000
  0.000000  0.013018  0.000000     32.000000
  0.033822 -0.006509  0.000000     32.000000
  0.022548  0.026036  0.000000     32.000000
 -0.011274  0.032545  0.000000     32.000000
  0.056370 -0.019527  0.000000     32.000000
  0.045096  0.039054  0.000000     32.000000
 -0.011274  0.058582  0.000000     32.000000
  0.078918 -0.032545  0.000000     32.000000
  0.067644  0.052072  0.000000     32.000000
 -0.011274  0.084618  0.000000     32.000000
 -0.078918  0.058582  0.000000     32.000000
  0.090192 -0.143199  0.000000     32.000000
 -0.011274  0.110654  0.000000     32.000000
 -0.056370  0.045563  0.000000     32.000000
 -0.067644 -0.026036  0.000000     32.000000
 -0.011274 -0.071600  0.000000     32.000000
 -0.033822  0.032545  0.000000     32.000000
 -0.045096 -0.013018  0.000000     32.000000
 -0.011274 -0.045563  0.000000     32.000000
 -0.011274  0.019527  0.000000     16.000000
 -0.022548  0.000000  0.000000     32.000000
  0.033822  0.019527  0.000000     16.000000
  0.000000  0.039054  0.000000     32.000000
  0.056370  0.006509  0.000000     32.000000
  0.022548  0.052072  0.000000     32.000000
 -0.033822  0.045563  0.000000     32.000000
  0.078918 -0.006509  0.000000     32.000000
  0.045096  0.065091  0.000000     32.000000
 -0.033822  0.071600  0.000000     32.000000
 -0.078918  0.084618  0.000000     32.000000
  0.067644 -0.130181  0.000000     32.000000
 -0.033822  0.097636  0.000000     32.000000
 -0.056370  0.071600  0.000000     32.000000
  0.090192 -0.117163  0.000000     32.000000
 -0.033822  0.123672  0.000000     32.000000
 -0.033822  0.058582  0.000000     16.000000
 -0.067644  0.000000  0.000000     32.000000
  0.056370  0.032545  0.000000     16.000000
  0.000000  0.065091  0.000000     32.000000
  0.078918  0.019527  0.000000     32.000000
  0.022548  0.078109  0.000000     32.000000
 -0.056370  0.058582  0.000000     32.000000
 -0.078918  0.110654  0.000000     32.000000
  0.045096 -0.117163  0.000000     32.000000
 -0.056370  0.084618  0.000000     32.000000
 -0.056370  0.097636  0.000000     16.000000
  0.067644 -0.104145  0.000000     32.000000
  0.078918  0.045563  0.000000     16.000000
  0.000000  0.091127  0.000000     32.000000
 -0.078918  0.136690  0.000000     16.000000
  0.022548 -0.104145  0.000000     32.000000
 


--------------------------------------------------------------------------------------------------------




 Dimension of arrays:
   k-points           NKPTS =     52   k-points in BZ     NKDIM =     52   number of bands    NBANDS=     96
   number of dos      NEDOS =    301   number of ions     NIONS =     16
   non local maximal  LDIM  =      6   non local SUM 2l+1 LMDIM =     18
   total plane-waves  NPLWV =  98784
   max r-space proj   IRMAX =   2277   max aug-charges    IRDMAX=  10217
   dimension x,y,z NGX =    28 NGY =   28 NGZ =  126
   dimension x,y,z NGXF=    56 NGYF=   56 NGZF=  252
   support grid    NGXF=    56 NGYF=   56 NGZF=  252
   ions per type =               1   1  14
   NGX,Y,Z   is equivalent  to a cutoff of   8.40,  8.40,  7.82 a.u.
   NGXF,Y,Z  is equivalent  to a cutoff of  16.79, 16.79, 15.64 a.u.

 SYSTEM =  0.4.Ir1.Au11                            
 POSCAR =  Au Ir Pt                                

 Startparameter for this run:
   NWRITE =      2    write-flag & timer
   PREC   = normal    normal or accurate (medium, high low for compatibility)
   ISTART =      0    job   : 0-new  1-cont  2-samecut
   ICHARG =      2    charge: 1-file 2-atom 10-const
   ISPIN  =      1    spin polarized calculation?
   LNONCOLLINEAR =      F non collinear calculations
   LSORBIT =      F    spin-orbit coupling
   INIWAV =      1    electr: 0-lowe 1-rand  2-diag
   LASPH  =      F    aspherical Exc in radial PAW
   METAGGA=      F    non-selfconsistent MetaGGA calc.

 Electronic Relaxation 1
   ENCUT  =  350.0 eV  25.72 Ry    5.07 a.u.   8.46  8.46 40.87*2*pi/ulx,y,z
   ENINI  =  350.0     initial cutoff
   ENAUG  =  359.0 eV  augmentation charge cutoff
   NELM   =   1000;   NELMIN=  5; NELMDL= -5     # of ELM steps 
   EDIFF  = 0.1E-04   stopping-criterion for ELM
   LREAL  =      T    real-space projection
   NLSPLINE    = F    spline interpolate recip. space projectors
   LCOMPAT=      F    compatible to vasp.4.4
   GGA_COMPAT  = T    GGA compatible to vasp.4.4-vasp.4.6
   LMAXPAW     = -100 max onsite density
   LMAXMIX     =    2 max onsite mixed and CHGCAR
   VOSKOWN=      0    Vosko Wilk Nusair interpolation
   ROPT   =   -0.00050  -0.00050  -0.00050
 Ionic relaxation
   EDIFFG = 0.1E-03   stopping-criterion for IOM
   NSW    =      0    number of steps for IOM
   NBLOCK =      1;   KBLOCK =      1    inner block; outer block 
   IBRION =     -1    ionic relax: 0-MD 1-quasi-New 2-CG
   NFREE  =      0    steps in history (QN), initial steepest desc. (CG)
   ISIF   =      2    stress and relaxation
   IWAVPR =     10    prediction:  0-non 1-charg 2-wave 3-comb
   ISYM   =      2    0-nonsym 1-usesym 2-fastsym
   LCORR  =      T    Harris-Foulkes like correction to forces

   POTIM  = 0.5000    time-step for ionic-motion
   TEIN   =    0.0    initial temperature
   TEBEG  =    0.0;   TEEND  =   0.0 temperature during run
   SMASS  =  -3.00    Nose mass-parameter (am)
   estimated Nose-frequenzy (Omega)   =  0.10E-29 period in steps =****** mass=  -0.702E-27a.u.
   SCALEE = 1.0000    scale energy and forces
   NPACO  =    256;   APACO  = 16.0  distance and # of slots for P.C.
   PSTRESS=    0.0 pullay stress

  Mass of Ions in am
   POMASS = 196.97192.22195.08
  Ionic Valenz
   ZVAL   =  11.00  9.00 10.00
  Atomic Wigner-Seitz radii
   RWIGS  =  -1.00 -1.00 -1.00
  virtual crystal weights 
   VCA    =   1.00  1.00  1.00
   NELECT =     160.0000    total number of electrons
   NUPDOWN=      -1.0000    fix difference up-down

 DOS related values:
   EMIN   =  10.00;   EMAX   =-10.00  energy-range for DOS
   EFERMI =   0.00
   ISMEAR =     1;   SIGMA  =   0.20  broadening in eV -4-tet -1-fermi 0-gaus

 Electronic relaxation 2 (details)
   IALGO  =     38    algorithm
   LDIAG  =      T    sub-space diagonalisation (order eigenvalues)
   LSUBROT=      F    optimize rotation matrix (better conditioning)
   TURBO    =      0    0=normal 1=particle mesh
   IRESTART =      0    0=no restart 2=restart with 2 vectors
   NREBOOT  =      0    no. of reboots
   NMIN     =      0    reboot dimension
   EREF     =   0.00    reference energy to select bands
   IMIX   =      4    mixing-type and parameters
     AMIX     =   0.40;   BMIX     =  1.00
     AMIX_MAG =   1.60;   BMIX_MAG =  1.00
     AMIN     =   0.10
     WC   =   100.;   INIMIX=   1;  MIXPRE=   1;  MAXMIX= -45

 Intra band minimization:
   WEIMIN = 0.0000     energy-eigenvalue tresh-hold
   EBREAK =  0.26E-07  absolut break condition
   DEPER  =   0.30     relativ break condition  

   TIME   =   0.40     timestep for ELM

  volume/ion in A,a.u.               =      44.56       300.73
  Fermi-wavevector in a.u.,A,eV,Ry     =   0.994829  1.879954 13.465469  0.989684
  Thomas-Fermi vector in A             =   2.126807
 
 Write flags
   LWAVE        =      F    write WAVECAR
   LDOWNSAMPLE  =      F    k-point downsampling of WAVECAR
   LCHARG       =      F    write CHGCAR
   LVTOT        =      F    write LOCPOT, total local potential
   LVHAR        =      F    write LOCPOT, Hartree potential only
   LELF         =      F    write electronic localiz. function (ELF)
   LORBIT       =      0    0 simple, 1 ext, 2 COOP (PROOUT), +10 PAW based schemes


 Dipole corrections
   LMONO  =      F    monopole corrections only (constant potential shift)
   LDIPOL =      F    correct potential (dipole corrections)
   IDIPOL =      3    1-x, 2-y, 3-z, 4-all directions 
   EPSILON=  1.0000000 bulk dielectric constant

 Exchange correlation treatment:
   GGA     =    --    GGA type
   LEXCH   =     8    internal setting for exchange type
   VOSKOWN=      0    Vosko Wilk Nusair interpolation
   LHFCALC =     F    Hartree Fock is set to
   LHFONE  =     F    Hartree Fock one center treatment
   AEXX    =    0.0000 exact exchange contribution

 Linear response parameters
   LEPSILON=     F    determine dielectric tensor
   LRPA    =     F    only Hartree local field effects (RPA)
   LNABLA  =     F    use nabla operator in PAW spheres
   LVEL    =     F    velocity operator in full k-point grid
   LINTERFAST=   F  fast interpolation
   KINTER  =     0    interpolate to denser k-point grid
   CSHIFT  =0.1000    complex shift for real part using Kramers Kronig
   OMEGAMAX=  -1.0    maximum frequency
   DEG_THRESHOLD= 0.2000000E-02 threshold for treating states as degnerate
   RTIME   =   -0.100 relaxation time in fs
  (WPLASMAI=    0.000 imaginary part of plasma frequency in eV, 0.658/RTIME)
   DFIELD  = 0.0000000 0.0000000 0.0000000 field for delta impulse in time
 
 Orbital magnetization related:
   ORBITALMAG=     F  switch on orbital magnetization
   LCHIMAG   =     F  perturbation theory with respect to B field
   DQ        =  0.001000  dq finite difference perturbation B field
   LLRAUG    =     F  two centre corrections for induced B field



--------------------------------------------------------------------------------------------------------


 Static calculation
 charge density and potential will be updated during run
 non-spin polarized calculation
 Variant of blocked Davidson
 Davidson routine will perform the subspace rotation
 perform sub-space diagonalisation
    after iterative eigenvector-optimisation
 modified Broyden-mixing scheme, WC =      100.0
 initial mixing is a Kerker type mixing with AMIX =  0.4000 and BMIX =      1.0000
 Hartree-type preconditioning will be used
 using additional bands           16
 real space projection scheme for non local part
 use partial core corrections
 calculate Harris-corrections to forces 
   (improved forces if not selfconsistent)
 use gradient corrections 
 use of overlap-Matrix (Vanderbilt PP)
 Methfessel and Paxton  Order N= 1 SIGMA  =   0.20


--------------------------------------------------------------------------------------------------------


  energy-cutoff  :      350.00
  volume of cell :      713.02
      direct lattice vectors                 reciprocal lattice vectors
     5.543717165  0.000000000  0.000000000     0.180384383 -0.104144972  0.000000000
     2.771858582  4.800999896  0.000000000     0.000000000  0.208289944  0.000000000
     0.000000000  0.000000000 26.789639166     0.000000000  0.000000000  0.037327864

  length of vectors
     5.543717165  5.543717165 26.789639166     0.208289944  0.208289944  0.037327864


 
 k-points in units of 2pi/SCALE and weight: 0.4.Ir1.Au11                            
   0.01127402  0.00650906  0.00000000       0.010
   0.00000000  0.01301812  0.00000000       0.021
   0.03382207 -0.00650906  0.00000000       0.021
   0.02254805  0.02603624  0.00000000       0.021
  -0.01127402  0.03254530  0.00000000       0.021
   0.05637012 -0.01952718  0.00000000       0.021
   0.04509610  0.03905436  0.00000000       0.021
  -0.01127402  0.05858155  0.00000000       0.021
   0.07891817 -0.03254530  0.00000000       0.021
   0.06764414  0.05207249  0.00000000       0.021
  -0.01127402  0.08461779  0.00000000       0.021
  -0.07891817  0.05858155  0.00000000       0.021
   0.09019219 -0.14319934  0.00000000       0.021
  -0.01127402  0.11065403  0.00000000       0.021
  -0.05637012  0.04556343  0.00000000       0.021
  -0.06764414 -0.02603624  0.00000000       0.021
  -0.01127402 -0.07159967  0.00000000       0.021
  -0.03382207  0.03254530  0.00000000       0.021
  -0.04509610 -0.01301812  0.00000000       0.021
  -0.01127402 -0.04556343  0.00000000       0.021
  -0.01127402  0.01952718  0.00000000       0.010
  -0.02254805  0.00000000  0.00000000       0.021
   0.03382207  0.01952718  0.00000000       0.010
   0.00000000  0.03905436  0.00000000       0.021
   0.05637012  0.00650906  0.00000000       0.021
   0.02254805  0.05207249  0.00000000       0.021
  -0.03382207  0.04556343  0.00000000       0.021
   0.07891817 -0.00650906  0.00000000       0.021
   0.04509610  0.06509061  0.00000000       0.021
  -0.03382207  0.07159967  0.00000000       0.021
  -0.07891817  0.08461779  0.00000000       0.021
   0.06764414 -0.13018122  0.00000000       0.021
  -0.03382207  0.09763591  0.00000000       0.021
  -0.05637012  0.07159967  0.00000000       0.021
   0.09019219 -0.11716309  0.00000000       0.021
  -0.03382207  0.12367215  0.00000000       0.021
  -0.03382207  0.05858155  0.00000000       0.010
  -0.06764414  0.00000000  0.00000000       0.021
   0.05637012  0.03254530  0.00000000       0.010
   0.00000000  0.06509061  0.00000000       0.021
   0.07891817  0.01952718  0.00000000       0.021
   0.02254805  0.07810873  0.00000000       0.021
  -0.05637012  0.05858155  0.00000000       0.021
  -0.07891817  0.11065403  0.00000000       0.021
   0.04509610 -0.11716309  0.00000000       0.021
  -0.05637012  0.08461779  0.00000000       0.021
  -0.05637012  0.09763591  0.00000000       0.010
   0.06764414 -0.10414497  0.00000000       0.021
   0.07891817  0.04556343  0.00000000       0.010
   0.00000000  0.09112685  0.00000000       0.021
  -0.07891817  0.13669028  0.00000000       0.010
   0.02254805 -0.10414497  0.00000000       0.021
 
 k-points in reciprocal lattice and weights: 0.4.Ir1.Au11                            
   0.06250000  0.06250000  0.00000000       0.010
   0.00000000  0.06250000  0.00000000       0.021
   0.18750000  0.06250000  0.00000000       0.021
   0.12500000  0.18750000  0.00000000       0.021
  -0.06250000  0.12500000  0.00000000       0.021
   0.31250000  0.06250000  0.00000000       0.021
   0.25000000  0.31250000  0.00000000       0.021
  -0.06250000  0.25000000  0.00000000       0.021
   0.43750000  0.06250000  0.00000000       0.021
   0.37500000  0.43750000  0.00000000       0.021
  -0.06250000  0.37500000  0.00000000       0.021
  -0.43750000  0.06250000  0.00000000       0.021
   0.50000000 -0.43750000  0.00000000       0.021
  -0.06250000  0.50000000  0.00000000       0.021
  -0.31250000  0.06250000  0.00000000       0.021
  -0.37500000 -0.31250000  0.00000000       0.021
  -0.06250000 -0.37500000  0.00000000       0.021
  -0.18750000  0.06250000  0.00000000       0.021
  -0.25000000 -0.18750000  0.00000000       0.021
  -0.06250000 -0.25000000  0.00000000       0.021
  -0.06250000  0.06250000  0.00000000       0.010
  -0.12500000 -0.06250000  0.00000000       0.021
   0.18750000  0.18750000  0.00000000       0.010
   0.00000000  0.18750000  0.00000000       0.021
   0.31250000  0.18750000  0.00000000       0.021
   0.12500000  0.31250000  0.00000000       0.021
  -0.18750000  0.12500000  0.00000000       0.021
   0.43750000  0.18750000  0.00000000       0.021
   0.25000000  0.43750000  0.00000000       0.021
  -0.18750000  0.25000000  0.00000000       0.021
  -0.43750000  0.18750000  0.00000000       0.021
   0.37500000 -0.43750000  0.00000000       0.021
  -0.18750000  0.37500000  0.00000000       0.021
  -0.31250000  0.18750000  0.00000000       0.021
   0.50000000 -0.31250000  0.00000000       0.021
  -0.18750000  0.50000000  0.00000000       0.021
  -0.18750000  0.18750000  0.00000000       0.010
  -0.37500000 -0.18750000  0.00000000       0.021
   0.31250000  0.31250000  0.00000000       0.010
   0.00000000  0.31250000  0.00000000       0.021
   0.43750000  0.31250000  0.00000000       0.021
   0.12500000  0.43750000  0.00000000       0.021
  -0.31250000  0.12500000  0.00000000       0.021
  -0.43750000  0.31250000  0.00000000       0.021
   0.25000000 -0.43750000  0.00000000       0.021
  -0.31250000  0.25000000  0.00000000       0.021
  -0.31250000  0.31250000  0.00000000       0.010
   0.37500000 -0.31250000  0.00000000       0.021
   0.43750000  0.43750000  0.00000000       0.010
   0.00000000  0.43750000  0.00000000       0.021
  -0.43750000  0.43750000  0.00000000       0.010
   0.12500000 -0.43750000  0.00000000       0.021
 
 position of ions in fractional coordinates (direct lattice) 
   0.33333333  0.83333333  0.54381573
   0.50000000  0.00000000  0.37327864
   0.00000000  0.00000000  0.37327864
   0.00000000  0.50000000  0.37327864
   0.50000000  0.50000000  0.37327864
   0.16666667  0.16666667  0.45775955
   0.66666667  0.16666667  0.45775955
   0.16666667  0.66666667  0.45775955
   0.66666667  0.66666667  0.45775955
   0.83333333  0.33333333  0.54381573
   0.33333333  0.33333333  0.54381573
   0.83333333  0.83333333  0.54381573
   0.00000000  0.00000000  0.63112717
   0.50000000  0.00000000  0.63112717
   0.00000000  0.50000000  0.63112717
   0.50000000  0.50000000  0.63112717
 
 position of ions in cartesian coordinates  (Angst):
   4.15778787  4.00083325 14.56862716
   2.77185858  0.00000000 10.00000000
   0.00000000  0.00000000 10.00000000
   1.38592929  2.40049995 10.00000000
   4.15778787  2.40049995 10.00000000
   1.38592929  0.80016665 12.26321306
   4.15778787  0.80016665 12.26321306
   2.77185858  3.20066660 12.26321306
   5.54371716  3.20066660 12.26321306
   5.54371716  1.60033330 14.56862716
   2.77185858  1.60033330 14.56862716
   6.92964646  4.00083325 14.56862716
   0.00000000  0.00000000 16.90766902
   2.77185858  0.00000000 16.90766902
   1.38592929  2.40049995 16.90766902
   4.15778787  2.40049995 16.90766902
 


--------------------------------------------------------------------------------------------------------


 k-point  1 :   0.0625 0.0625 0.0000  plane waves:   10681
 k-point  2 :   0.0000 0.0625 0.0000  plane waves:   10681
 k-point  3 :   0.1875 0.0625 0.0000  plane waves:   10654
 k-point  4 :   0.1250 0.1875 0.0000  plane waves:   10654
 k-point  5 :  -0.0625 0.1250 0.0000  plane waves:   10654
 k-point  6 :   0.3125 0.0625 0.0000  plane waves:   10616
 k-point  7 :   0.2500 0.3125 0.0000  plane waves:   10616
 k-point  8 :  -0.0625 0.2500 0.0000  plane waves:   10616
 k-point  9 :   0.4375 0.0625 0.0000  plane waves:   10577
 k-point 10 :   0.3750 0.4375 0.0000  plane waves:   10577
 k-point 11 :  -0.0625 0.3750 0.0000  plane waves:   10577
 k-point 12 :  -0.4375 0.0625 0.0000  plane waves:   10551
 k-point 13 :   0.5000-0.4375 0.0000  plane waves:   10551
 k-point 14 :  -0.0625 0.5000 0.0000  plane waves:   10551
 k-point 15 :  -0.3125 0.0625 0.0000  plane waves:   10587
 k-point 16 :  -0.3750-0.3125 0.0000  plane waves:   10587
 k-point 17 :  -0.0625-0.3750 0.0000  plane waves:   10587
 k-point 18 :  -0.1875 0.0625 0.0000  plane waves:   10616
 k-point 19 :  -0.2500-0.1875 0.0000  plane waves:   10616
 k-point 20 :  -0.0625-0.2500 0.0000  plane waves:   10616
 k-point 21 :  -0.0625 0.0625 0.0000  plane waves:   10677
 k-point 22 :  -0.1250-0.0625 0.0000  plane waves:   10677
 k-point 23 :   0.1875 0.1875 0.0000  plane waves:   10631
 k-point 24 :   0.0000 0.1875 0.0000  plane waves:   10631
 k-point 25 :   0.3125 0.1875 0.0000  plane waves:   10620
 k-point 26 :   0.1250 0.3125 0.0000  plane waves:   10620
 k-point 27 :  -0.1875 0.1250 0.0000  plane waves:   10620
 k-point 28 :   0.4375 0.1875 0.0000  plane waves:   10599
 k-point 29 :   0.2500 0.4375 0.0000  plane waves:   10599
 k-point 30 :  -0.1875 0.2500 0.0000  plane waves:   10599
 k-point 31 :  -0.4375 0.1875 0.0000  plane waves:   10577
 k-point 32 :   0.3750-0.4375 0.0000  plane waves:   10577
 k-point 33 :  -0.1875 0.3750 0.0000  plane waves:   10577
 k-point 34 :  -0.3125 0.1875 0.0000  plane waves:   10577
 k-point 35 :   0.5000-0.3125 0.0000  plane waves:   10577
 k-point 36 :  -0.1875 0.5000 0.0000  plane waves:   10577
 k-point 37 :  -0.1875 0.1875 0.0000  plane waves:   10613
 k-point 38 :  -0.3750-0.1875 0.0000  plane waves:   10613
 k-point 39 :   0.3125 0.3125 0.0000  plane waves:   10603
 k-point 40 :   0.0000 0.3125 0.0000  plane waves:   10603
 k-point 41 :   0.4375 0.3125 0.0000  plane waves:   10605
 k-point 42 :   0.1250 0.4375 0.0000  plane waves:   10605
 k-point 43 :  -0.3125 0.1250 0.0000  plane waves:   10605
 k-point 44 :  -0.4375 0.3125 0.0000  plane waves:   10593
 k-point 45 :   0.2500-0.4375 0.0000  plane waves:   10593
 k-point 46 :  -0.3125 0.2500 0.0000  plane waves:   10593
 k-point 47 :  -0.3125 0.3125 0.0000  plane waves:   10592
 k-point 48 :   0.3750-0.3125 0.0000  plane waves:   10592
 k-point 49 :   0.4375 0.4375 0.0000  plane waves:   10562
 k-point 50 :   0.0000 0.4375 0.0000  plane waves:   10562
 k-point 51 :  -0.4375 0.4375 0.0000  plane waves:   10550
 k-point 52 :   0.1250-0.4375 0.0000  plane waves:   10550

 maximum and minimum number of plane-waves per node :      2689     2616

 maximum number of plane-waves:     10681
 maximum index in each direction: 
   IXMAX=    8   IYMAX=    8   IZMAX=   40
   IXMIN=   -8   IYMIN=   -8   IZMIN=  -40


 real space projection operators:
  total allocation   :       4856.06 KBytes
  max/ min on nodes  :       1216.41       1211.62


 parallel 3D FFT for wavefunctions:
    minimum data exchange during FFTs selected (reduces bandwidth)
 parallel 3D FFT for charge:
    minimum data exchange during FFTs selected (reduces bandwidth)


 total amount of memory used by VASP MPI-rank0    94183. kBytes
=======================================================================

   base      :      30000. kBytes
   nonlr-proj:       2110. kBytes
   fftplans  :       2594. kBytes
   grid      :       4625. kBytes
   one-center:         62. kBytes
   wavefun   :      54792. kBytes
 
     INWAV:  cpu time    0.0000: real time    0.0000
 Broyden mixing: mesh for mixing (old mesh)
   NGX = 17   NGY = 17   NGZ = 81
  (NGX  = 56   NGY  = 56   NGZ  =252)
  gives a total of  23409 points

 initial charge density was supplied:
 charge density of overlapping atoms calculated
 number of electron     160.0000000 magnetization 
 keeping initial charge density in first step


--------------------------------------------------------------------------------------------------------


 Maximum index for non-local projection operator          548
 Maximum index for augmentation-charges          730 (set IRDMAX)


--------------------------------------------------------------------------------------------------------


 First call to EWALD:  gamma=   0.198
 Maximum number of real-space cells 5x 5x 1
 Maximum number of reciprocal cells 2x 2x 7

    FEWALD:  cpu time    0.0012: real time    0.0012


--------------------------------------- Iteration      1(   1)  ---------------------------------------


    POTLOK:  cpu time    0.0223: real time    0.0288
    SETDIJ:  cpu time    0.0025: real time    0.0025
     EDDAV:  cpu time    6.3862: real time    6.4018
       DOS:  cpu time    0.0044: real time    0.0044
    --------------------------------------------
      LOOP:  cpu time    6.4154: real time    6.4375

 eigenvalue-minimisations  : 10032
 total energy-change (2. order) : 0.9766442E+03  (-0.5660657E+04)
 number of electron     160.0000000 magnetization 
 augmentation part      160.0000000 magnetization 

 Free energy of the ion-electron system (eV)
  ---------------------------------------------------
  alpha Z        PSCENC =       350.82459594
  Ewald energy   TEWEN  =     73410.14867536
  -Hartree energ DENC   =    -85645.21993191
  -exchange      EXHF   =         0.00000000
  -V(xc)+E(xc)   XCENC  =        46.80786893
  PAW double counting   =     11171.21661038   -10711.84633960
  entropy T*S    EENTRO =         0.01017273
  eigenvalues    EBANDS =       661.00833520
  atomic energy  EATOM  =     11693.69420960
  Solvation  Ediel_sol  =         0.00000000
  ---------------------------------------------------
  free energy    TOTEN  =       976.64419664 eV

  energy without entropy =      976.63402391  energy(sigma->0) =      976.64080573


--------------------------------------------------------------------------------------------------------




--------------------------------------- Iteration      1(   2)  ---------------------------------------


     EDDAV:  cpu time    7.2790: real time    7.2966
       DOS:  cpu time    0.0052: real time    0.0053
    --------------------------------------------
      LOOP:  cpu time    7.2843: real time    7.3018

 eigenvalue-minimisations  : 12328
 total energy-change (2. order) :-0.9950374E+03  (-0.9166947E+03)
 number of electron     160.0000000 magnetization 
 augmentation part      160.0000000 magnetization 

 Free energy of the ion-electron system (eV)
  ---------------------------------------------------
  alpha Z        PSCENC =       350.82459594
  Ewald energy   TEWEN  =     73410.14867536
  -Hartree energ DENC   =    -85645.21993191
  -exchange      EXHF   =         0.00000000
  -V(xc)+E(xc)   XCENC  =        46.80786893
  PAW double counting   =     11171.21661038   -10711.84633960
  entropy T*S    EENTRO =        -0.00176334
  eigenvalues    EBANDS =      -334.01710412
  atomic energy  EATOM  =     11693.69420960
  Solvation  Ediel_sol  =         0.00000000
  ---------------------------------------------------
  free energy    TOTEN  =       -18.39317875 eV

  energy without entropy =      -18.39141541  energy(sigma->0) =      -18.39259097


--------------------------------------------------------------------------------------------------------




--------------------------------------- Iteration      1(   3)  ---------------------------------------


     EDDAV:  cpu time    7.0662: real time    7.0874
       DOS:  cpu time    0.0057: real time    0.0057
    --------------------------------------------
      LOOP:  cpu time    7.0719: real time    7.0931

 eigenvalue-minimisations  : 11904
 total energy-change (2. order) :-0.7639570E+02  (-0.6897877E+02)
 number of electron     160.0000000 magnetization 
 augmentation part      160.0000000 magnetization 

 Free energy of the ion-electron system (eV)
  ---------------------------------------------------
  alpha Z        PSCENC =       350.82459594
  Ewald energy   TEWEN  =     73410.14867536
  -Hartree energ DENC   =    -85645.21993191
  -exchange      EXHF   =         0.00000000
  -V(xc)+E(xc)   XCENC  =        46.80786893
  PAW double counting   =     11171.21661038   -10711.84633960
  entropy T*S    EENTRO =        -0.00657429
  eigenvalues    EBANDS =      -410.40799327
  atomic energy  EATOM  =     11693.69420960
  Solvation  Ediel_sol  =         0.00000000
  ---------------------------------------------------
  free energy    TOTEN  =       -94.78887886 eV

  energy without entropy =      -94.78230457  energy(sigma->0) =      -94.78668743


--------------------------------------------------------------------------------------------------------




--------------------------------------- Iteration      1(   4)  ---------------------------------------


     EDDAV:  cpu time    7.8753: real time    7.8945
       DOS:  cpu time    0.0054: real time    0.0054
    --------------------------------------------
      LOOP:  cpu time    7.8806: real time    7.8999

 eigenvalue-minimisations  : 13552
 total energy-change (2. order) :-0.3203978E+01  (-0.3072656E+01)
 number of electron     160.0000000 magnetization 
 augmentation part      160.0000000 magnetization 

 Free energy of the ion-electron system (eV)
  ---------------------------------------------------
  alpha Z        PSCENC =       350.82459594
  Ewald energy   TEWEN  =     73410.14867536
  -Hartree energ DENC   =    -85645.21993191
  -exchange      EXHF   =         0.00000000
  -V(xc)+E(xc)   XCENC  =        46.80786893
  PAW double counting   =     11171.21661038   -10711.84633960
  entropy T*S    EENTRO =        -0.00472951
  eigenvalues    EBANDS =      -413.61381602
  atomic energy  EATOM  =     11693.69420960
  Solvation  Ediel_sol  =         0.00000000
  ---------------------------------------------------
  free energy    TOTEN  =       -97.99285682 eV

  energy without entropy =      -97.98812731  energy(sigma->0) =      -97.99128031


--------------------------------------------------------------------------------------------------------




--------------------------------------- Iteration      1(   5)  ---------------------------------------


     EDDAV:  cpu time    7.6370: real time    7.6586
       DOS:  cpu time    0.0058: real time    0.0058
    CHARGE:  cpu time    0.3395: real time    0.3405
    MIXING:  cpu time    0.0010: real time    0.0010
    --------------------------------------------
      LOOP:  cpu time    7.9834: real time    8.0060

 eigenvalue-minimisations  : 12904
 total energy-change (2. order) :-0.8199589E-01  (-0.8169548E-01)
 number of electron     160.0000122 magnetization 
 augmentation part       46.9865163 magnetization 

 Broyden mixing:
  rms(total) = 0.42940E+01    rms(broyden)= 0.42939E+01
  rms(prec ) = 0.43352E+01
  weight for this iteration     100.00

 Free energy of the ion-electron system (eV)
  ---------------------------------------------------
  alpha Z        PSCENC =       350.82459594
  Ewald energy   TEWEN  =     73410.14867536
  -Hartree energ DENC   =    -85645.21993191
  -exchange      EXHF   =         0.00000000
  -V(xc)+E(xc)   XCENC  =        46.80786893
  PAW double counting   =     11171.21661038   -10711.84633960
  entropy T*S    EENTRO =        -0.00461684
  eigenvalues    EBANDS =      -413.69592457
  atomic energy  EATOM  =     11693.69420960
  Solvation  Ediel_sol  =         0.00000000
  ---------------------------------------------------
  free energy    TOTEN  =       -98.07485270 eV

  energy without entropy =      -98.07023587  energy(sigma->0) =      -98.07331376


--------------------------------------------------------------------------------------------------------




--------------------------------------- Iteration      1(   6)  ---------------------------------------


    POTLOK:  cpu time    0.0196: real time    0.0199
    SETDIJ:  cpu time    0.0024: real time    0.0024
     EDDAV:  cpu time    7.1438: real time    7.1643
       DOS:  cpu time    0.0057: real time    0.0057
    CHARGE:  cpu time    0.3375: real time    0.3384
    MIXING:  cpu time    0.0010: real time    0.0010
    --------------------------------------------
      LOOP:  cpu time    7.5100: real time    7.5316

 eigenvalue-minimisations  : 11840
 total energy-change (2. order) : 0.1217072E+01  (-0.2199055E+01)
 number of electron     160.0000106 magnetization 
 augmentation part       49.4750854 magnetization 

 Broyden mixing:
  rms(total) = 0.37133E+01    rms(broyden)= 0.37133E+01
  rms(prec ) = 0.42740E+01
  weight for this iteration     100.00

 eigenvalues of (default mixing * dielectric matrix)
  average eigenvalue GAMMA=   0.8588
  0.8588

 Free energy of the ion-electron system (eV)
  ---------------------------------------------------
  alpha Z        PSCENC =       350.82459594
  Ewald energy   TEWEN  =     73410.14867536
  -Hartree energ DENC   =    -85452.85802463
  -exchange      EXHF   =         0.00000000
  -V(xc)+E(xc)   XCENC  =        42.71356759
  PAW double counting   =     12376.66168827   -11940.80558215
  entropy T*S    EENTRO =         0.00657798
  eigenvalues    EBANDS =      -577.24348865
  atomic energy  EATOM  =     11693.69420960
  Solvation  Ediel_sol  =         0.00000000
  ---------------------------------------------------
  free energy    TOTEN  =       -96.85778069 eV

  energy without entropy =      -96.86435866  energy(sigma->0) =      -96.85997335


--------------------------------------------------------------------------------------------------------




--------------------------------------- Iteration      1(   7)  ---------------------------------------


    POTLOK:  cpu time    0.0184: real time    0.0186
    SETDIJ:  cpu time    0.0023: real time    0.0023
     EDDAV:  cpu time    8.9583: real time    8.9796
       DOS:  cpu time    0.0055: real time    0.0055
    CHARGE:  cpu time    0.3389: real time    0.3397
    MIXING:  cpu time    0.0011: real time    0.0011
    --------------------------------------------
      LOOP:  cpu time    9.3244: real time    9.3467

 eigenvalue-minimisations  : 15600
 total energy-change (2. order) :-0.4101050E+02  (-0.8696909E+01)
 number of electron     160.0000128 magnetization 
 augmentation part       48.0927435 magnetization 

 Broyden mixing:
  rms(total) = 0.53889E+01    rms(broyden)= 0.53888E+01
  rms(prec ) = 0.71842E+01
  weight for this iteration     100.00

 eigenvalues of (default mixing * dielectric matrix)
  average eigenvalue GAMMA=   0.9146
  1.6793  0.1499

 Free energy of the ion-electron system (eV)
  ---------------------------------------------------
  alpha Z        PSCENC =       350.82459594
  Ewald energy   TEWEN  =     73410.14867536
  -Hartree energ DENC   =    -85526.41018171
  -exchange      EXHF   =         0.00000000
  -V(xc)+E(xc)   XCENC  =        41.96766065
  PAW double counting   =     12819.76356058   -12389.31215238
  entropy T*S    EENTRO =        -0.01010402
  eigenvalues    EBANDS =      -538.53454745
  atomic energy  EATOM  =     11693.69420960
  Solvation  Ediel_sol  =         0.00000000
  ---------------------------------------------------
  free energy    TOTEN  =      -137.86828342 eV

  energy without entropy =     -137.85817940  energy(sigma->0) =     -137.86491541


--------------------------------------------------------------------------------------------------------




--------------------------------------- Iteration      1(   8)  ---------------------------------------


    POTLOK:  cpu time    0.0187: real time    0.0191
    SETDIJ:  cpu time    0.0023: real time    0.0023
     EDDAV:  cpu time    8.1783: real time    8.1978
       DOS:  cpu time    0.0057: real time    0.0057
    CHARGE:  cpu time    0.3380: real time    0.3388
    MIXING:  cpu time    0.0009: real time    0.0009
    --------------------------------------------
      LOOP:  cpu time    8.5440: real time    8.5647

 eigenvalue-minimisations  : 14032
 total energy-change (2. order) : 0.1403138E+02  (-0.5973159E+01)
 number of electron     160.0000156 magnetization 
 augmentation part       48.9163377 magnetization 

 Broyden mixing:
  rms(total) = 0.45511E+01    rms(broyden)= 0.45509E+01
  rms(prec ) = 0.52819E+01
  weight for this iteration     100.00

 eigenvalues of (default mixing * dielectric matrix)
  average eigenvalue GAMMA=   0.8574
  2.1622  0.2051  0.2051

 Free energy of the ion-electron system (eV)
  ---------------------------------------------------
  alpha Z        PSCENC =       350.82459594
  Ewald energy   TEWEN  =     73410.14867536
  -Hartree energ DENC   =    -85596.38110473
  -exchange      EXHF   =         0.00000000
  -V(xc)+E(xc)   XCENC  =        40.75556112
  PAW double counting   =     13732.76801606   -13313.73826777
  entropy T*S    EENTRO =        -0.00380164
  eigenvalues    EBANDS =      -441.90478931
  atomic energy  EATOM  =     11693.69420960
  Solvation  Ediel_sol  =         0.00000000
  ---------------------------------------------------
  free energy    TOTEN  =      -123.83690537 eV

  energy without entropy =     -123.83310373  energy(sigma->0) =     -123.83563815


--------------------------------------------------------------------------------------------------------




--------------------------------------- Iteration      1(   9)  ---------------------------------------


    POTLOK:  cpu time    0.0184: real time    0.0234
    SETDIJ:  cpu time    0.0024: real time    0.0024
     EDDAV:  cpu time    9.4433: real time    9.4685
       DOS:  cpu time    0.0058: real time    0.0058
    CHARGE:  cpu time    0.3381: real time    0.3390
    MIXING:  cpu time    0.0009: real time    0.0010
    --------------------------------------------
      LOOP:  cpu time    9.8089: real time    9.8400

 eigenvalue-minimisations  : 16576
 total energy-change (2. order) : 0.1510629E+02  (-0.3813073E+01)
 number of electron     160.0000136 magnetization 
 augmentation part       50.1660651 magnetization 

 Broyden mixing:
  rms(total) = 0.29932E+01    rms(broyden)= 0.29931E+01
  rms(prec ) = 0.42433E+01
  weight for this iteration     100.00

 eigenvalues of (default mixing * dielectric matrix)
  average eigenvalue GAMMA=   0.8324
  2.0801  0.8143  0.2838  0.1515

 Free energy of the ion-electron system (eV)
  ---------------------------------------------------
  alpha Z        PSCENC =       350.82459594
  Ewald energy   TEWEN  =     73410.14867536
  -Hartree energ DENC   =    -85425.87461136
  -exchange      EXHF   =         0.00000000
  -V(xc)+E(xc)   XCENC  =        39.92520517
  PAW double counting   =     14434.13293697   -14023.98600584
  entropy T*S    EENTRO =        -0.00659557
  eigenvalues    EBANDS =      -587.58902593
  atomic energy  EATOM  =     11693.69420960
  Solvation  Ediel_sol  =         0.00000000
  ---------------------------------------------------
  free energy    TOTEN  =      -108.73061564 eV

  energy without entropy =     -108.72402008  energy(sigma->0) =     -108.72841712


--------------------------------------------------------------------------------------------------------




--------------------------------------- Iteration      1(  10)  ---------------------------------------


    POTLOK:  cpu time    0.0183: real time    0.0185
    SETDIJ:  cpu time    0.0023: real time    0.0023
     EDDAV:  cpu time    8.1784: real time    8.2055
       DOS:  cpu time    0.0058: real time    0.0058
    CHARGE:  cpu time    0.3442: real time    0.3450
    MIXING:  cpu time    0.0010: real time    0.0010
    --------------------------------------------
      LOOP:  cpu time    8.5499: real time    8.5782

 eigenvalue-minimisations  : 14000
 total energy-change (2. order) : 0.1138679E+02  (-0.2991984E+01)
 number of electron     160.0000123 magnetization 
 augmentation part       50.4195350 magnetization 

 Broyden mixing:
  rms(total) = 0.21388E+01    rms(broyden)= 0.21386E+01
  rms(prec ) = 0.26794E+01
  weight for this iteration     100.00

 eigenvalues of (default mixing * dielectric matrix)
  average eigenvalue GAMMA=   0.7213
  2.0053  0.9481  0.1560  0.2818  0.2156

 Free energy of the ion-electron system (eV)
  ---------------------------------------------------
  alpha Z        PSCENC =       350.82459594
  Ewald energy   TEWEN  =     73410.14867536
  -Hartree energ DENC   =    -85447.85018407
  -exchange      EXHF   =         0.00000000
  -V(xc)+E(xc)   XCENC  =        40.88413547
  PAW double counting   =     14564.37601781   -14151.78472864
  entropy T*S    EENTRO =        -0.00517385
  eigenvalues    EBANDS =      -557.63136899
  atomic energy  EATOM  =     11693.69420960
  Solvation  Ediel_sol  =         0.00000000
  ---------------------------------------------------
  free energy    TOTEN  =       -97.34382136 eV

  energy without entropy =      -97.33864750  energy(sigma->0) =      -97.34209674


--------------------------------------------------------------------------------------------------------




--------------------------------------- Iteration      1(  11)  ---------------------------------------


    POTLOK:  cpu time    0.0184: real time    0.0185
    SETDIJ:  cpu time    0.0023: real time    0.0023
     EDDAV:  cpu time    8.4511: real time    8.4713
       DOS:  cpu time    0.0058: real time    0.0058
    CHARGE:  cpu time    0.3576: real time    0.3587
    MIXING:  cpu time    0.0012: real time    0.0012
    --------------------------------------------
      LOOP:  cpu time    8.8364: real time    8.8578

 eigenvalue-minimisations  : 14496
 total energy-change (2. order) : 0.5017664E+01  (-0.1746883E+01)
 number of electron     160.0000123 magnetization 
 augmentation part       50.1769317 magnetization 

 Broyden mixing:
  rms(total) = 0.95883E+00    rms(broyden)= 0.95863E+00
  rms(prec ) = 0.11388E+01
  weight for this iteration     100.00

 eigenvalues of (default mixing * dielectric matrix)
  average eigenvalue GAMMA=   0.6859
  2.0615  0.6814  0.6814  0.3286  0.1606  0.2021

 Free energy of the ion-electron system (eV)
  ---------------------------------------------------
  alpha Z        PSCENC =       350.82459594
  Ewald energy   TEWEN  =     73410.14867536
  -Hartree energ DENC   =    -85452.69431421
  -exchange      EXHF   =         0.00000000
  -V(xc)+E(xc)   XCENC  =        40.95291033
  PAW double counting   =     14579.31917079   -14165.99742000
  entropy T*S    EENTRO =        -0.03360738
  eigenvalues    EBANDS =      -548.54037794
  atomic energy  EATOM  =     11693.69420960
  Solvation  Ediel_sol  =         0.00000000
  ---------------------------------------------------
  free energy    TOTEN  =       -92.32615750 eV

  energy without entropy =      -92.29255012  energy(sigma->0) =      -92.31495504


--------------------------------------------------------------------------------------------------------




--------------------------------------- Iteration      1(  12)  ---------------------------------------


    POTLOK:  cpu time    0.0197: real time    0.0209
    SETDIJ:  cpu time    0.0023: real time    0.0023
     EDDAV:  cpu time    8.1763: real time    8.1957
       DOS:  cpu time    0.0059: real time    0.0060
    CHARGE:  cpu time    0.3617: real time    0.3626
    MIXING:  cpu time    0.0012: real time    0.0012
    --------------------------------------------
      LOOP:  cpu time    8.5671: real time    8.5886

 eigenvalue-minimisations  : 14032
 total energy-change (2. order) : 0.3674385E+00  (-0.2559535E+00)
 number of electron     160.0000127 magnetization 
 augmentation part       50.1818442 magnetization 

 Broyden mixing:
  rms(total) = 0.61429E+00    rms(broyden)= 0.61426E+00
  rms(prec ) = 0.63101E+00
  weight for this iteration     100.00

 eigenvalues of (default mixing * dielectric matrix)
  average eigenvalue GAMMA=   0.6355
  2.0677  0.7114  0.7114  0.1589  0.2866  0.2866  0.2263

 Free energy of the ion-electron system (eV)
  ---------------------------------------------------
  alpha Z        PSCENC =       350.82459594
  Ewald energy   TEWEN  =     73410.14867536
  -Hartree energ DENC   =    -85448.66859213
  -exchange      EXHF   =         0.00000000
  -V(xc)+E(xc)   XCENC  =        40.85106318
  PAW double counting   =     14576.39766185   -14163.58873292
  entropy T*S    EENTRO =        -0.00356162
  eigenvalues    EBANDS =      -551.61403824
  atomic energy  EATOM  =     11693.69420960
  Solvation  Ediel_sol  =         0.00000000
  ---------------------------------------------------
  free energy    TOTEN  =       -91.95871898 eV

  energy without entropy =      -91.95515736  energy(sigma->0) =      -91.95753177


--------------------------------------------------------------------------------------------------------




--------------------------------------- Iteration      1(  13)  ---------------------------------------


    POTLOK:  cpu time    0.0184: real time    0.0186
    SETDIJ:  cpu time    0.0023: real time    0.0023
     EDDAV:  cpu time    7.6202: real time    7.6383
       DOS:  cpu time    0.0058: real time    0.0058
    CHARGE:  cpu time    0.3582: real time    0.3590
    MIXING:  cpu time    0.0012: real time    0.0012
    --------------------------------------------
      LOOP:  cpu time    8.0061: real time    8.0253

 eigenvalue-minimisations  : 12808
 total energy-change (2. order) : 0.6644726E-01  (-0.4121384E-01)
 number of electron     160.0000126 magnetization 
 augmentation part       50.1860835 magnetization 

 Broyden mixing:
  rms(total) = 0.46093E+00    rms(broyden)= 0.46092E+00
  rms(prec ) = 0.48943E+00
  weight for this iteration     100.00

 eigenvalues of (default mixing * dielectric matrix)
  average eigenvalue GAMMA=   0.6903
  2.0418  0.9920  0.9920  0.4078  0.4078  0.3190  0.1598  0.2018

 Free energy of the ion-electron system (eV)
  ---------------------------------------------------
  alpha Z        PSCENC =       350.82459594
  Ewald energy   TEWEN  =     73410.14867536
  -Hartree energ DENC   =    -85447.36577931
  -exchange      EXHF   =         0.00000000
  -V(xc)+E(xc)   XCENC  =        40.85472698
  PAW double counting   =     14540.21581274   -14127.33742874
  entropy T*S    EENTRO =        -0.00999469
  eigenvalues    EBANDS =      -552.91708961
  atomic energy  EATOM  =     11693.69420960
  Solvation  Ediel_sol  =         0.00000000
  ---------------------------------------------------
  free energy    TOTEN  =       -91.89227172 eV

  energy without entropy =      -91.88227703  energy(sigma->0) =      -91.88894016


--------------------------------------------------------------------------------------------------------




--------------------------------------- Iteration      1(  14)  ---------------------------------------


    POTLOK:  cpu time    0.0187: real time    0.0189
    SETDIJ:  cpu time    0.0023: real time    0.0023
     EDDAV:  cpu time    6.8849: real time    6.9016
       DOS:  cpu time    0.0059: real time    0.0060
    CHARGE:  cpu time    0.3611: real time    0.3621
    MIXING:  cpu time    0.0013: real time    0.0013
    --------------------------------------------
      LOOP:  cpu time    7.2742: real time    7.2922

 eigenvalue-minimisations  : 11256
 total energy-change (2. order) : 0.2382278E-01  (-0.1836793E-01)
 number of electron     160.0000124 magnetization 
 augmentation part       50.1777073 magnetization 

 Broyden mixing:
  rms(total) = 0.40230E+00    rms(broyden)= 0.40229E+00
  rms(prec ) = 0.41508E+00
  weight for this iteration     100.00

 eigenvalues of (default mixing * dielectric matrix)
  average eigenvalue GAMMA=   0.7814
  2.1127  1.4217  1.4217  0.6450  0.3873  0.3873  0.1596  0.2900  0.2075

 Free energy of the ion-electron system (eV)
  ---------------------------------------------------
  alpha Z        PSCENC =       350.82459594
  Ewald energy   TEWEN  =     73410.14867536
  -Hartree energ DENC   =    -85447.83159048
  -exchange      EXHF   =         0.00000000
  -V(xc)+E(xc)   XCENC  =        40.93331643
  PAW double counting   =     14440.89777583   -14027.59995198
  entropy T*S    EENTRO =        -0.01013004
  eigenvalues    EBANDS =      -552.92534960
  atomic energy  EATOM  =     11693.69420960
  Solvation  Ediel_sol  =         0.00000000
  ---------------------------------------------------
  free energy    TOTEN  =       -91.86844894 eV

  energy without entropy =      -91.85831890  energy(sigma->0) =      -91.86507226


--------------------------------------------------------------------------------------------------------




--------------------------------------- Iteration      1(  15)  ---------------------------------------


    POTLOK:  cpu time    0.0187: real time    0.0189
    SETDIJ:  cpu time    0.0024: real time    0.0024
     EDDAV:  cpu time    7.4647: real time    7.4856
       DOS:  cpu time    0.0057: real time    0.0057
    CHARGE:  cpu time    0.3546: real time    0.3554
    MIXING:  cpu time    0.0013: real time    0.0013
    --------------------------------------------
      LOOP:  cpu time    7.8474: real time    7.8694

 eigenvalue-minimisations  : 12400
 total energy-change (2. order) :-0.7080141E-01  (-0.2954370E-01)
 number of electron     160.0000123 magnetization 
 augmentation part       50.1202654 magnetization 

 Broyden mixing:
  rms(total) = 0.39244E+00    rms(broyden)= 0.39243E+00
  rms(prec ) = 0.55111E+00
  weight for this iteration     100.00

 eigenvalues of (default mixing * dielectric matrix)
  average eigenvalue GAMMA=   0.7909
  2.1598  1.3901  1.3901  1.0570  0.4480  0.4480  0.1596  0.2059  0.3437  0.3066

 Free energy of the ion-electron system (eV)
  ---------------------------------------------------
  alpha Z        PSCENC =       350.82459594
  Ewald energy   TEWEN  =     73410.14867536
  -Hartree energ DENC   =    -85456.56525272
  -exchange      EXHF   =         0.00000000
  -V(xc)+E(xc)   XCENC  =        41.08716168
  PAW double counting   =     14317.83489013   -13904.03392379
  entropy T*S    EENTRO =        -0.01991294
  eigenvalues    EBANDS =      -544.90969361
  atomic energy  EATOM  =     11693.69420960
  Solvation  Ediel_sol  =         0.00000000
  ---------------------------------------------------
  free energy    TOTEN  =       -91.93925035 eV

  energy without entropy =      -91.91933741  energy(sigma->0) =      -91.93261270


--------------------------------------------------------------------------------------------------------




--------------------------------------- Iteration      1(  16)  ---------------------------------------


    POTLOK:  cpu time    0.0186: real time    0.0188
    SETDIJ:  cpu time    0.0023: real time    0.0023
     EDDAV:  cpu time    7.2021: real time    7.2212
       DOS:  cpu time    0.0059: real time    0.0059
    CHARGE:  cpu time    0.3542: real time    0.3550
    MIXING:  cpu time    0.0015: real time    0.0015
    --------------------------------------------
      LOOP:  cpu time    7.5846: real time    7.6047

 eigenvalue-minimisations  : 11832
 total energy-change (2. order) : 0.1100350E+00  (-0.3154619E-01)
 number of electron     160.0000125 magnetization 
 augmentation part       50.0793706 magnetization 

 Broyden mixing:
  rms(total) = 0.15647E+00    rms(broyden)= 0.15644E+00
  rms(prec ) = 0.18747E+00
  weight for this iteration     100.00

 eigenvalues of (default mixing * dielectric matrix)
  average eigenvalue GAMMA=   0.7549
  1.7160  1.7160  1.5043  0.7126  0.7126  0.4810  0.4810  0.1596  0.2060  0.3077
  0.3077

 Free energy of the ion-electron system (eV)
  ---------------------------------------------------
  alpha Z        PSCENC =       350.82459594
  Ewald energy   TEWEN  =     73410.14867536
  -Hartree energ DENC   =    -85463.87948405
  -exchange      EXHF   =         0.00000000
  -V(xc)+E(xc)   XCENC  =        41.14301244
  PAW double counting   =     14311.42969467   -13897.50583119
  entropy T*S    EENTRO =        -0.00804467
  eigenvalues    EBANDS =      -537.67604344
  atomic energy  EATOM  =     11693.69420960
  Solvation  Ediel_sol  =         0.00000000
  ---------------------------------------------------
  free energy    TOTEN  =       -91.82921533 eV

  energy without entropy =      -91.82117066  energy(sigma->0) =      -91.82653377


--------------------------------------------------------------------------------------------------------




--------------------------------------- Iteration      1(  17)  ---------------------------------------


    POTLOK:  cpu time    0.0194: real time    0.0258
    SETDIJ:  cpu time    0.0023: real time    0.0023
     EDDAV:  cpu time    7.9585: real time    7.9824
       DOS:  cpu time    0.0058: real time    0.0058
    CHARGE:  cpu time    0.3531: real time    0.3540
    MIXING:  cpu time    0.0016: real time    0.0016
    --------------------------------------------
      LOOP:  cpu time    8.3407: real time    8.3718

 eigenvalue-minimisations  : 13504
 total energy-change (2. order) : 0.2575934E-01  (-0.4778772E-02)
 number of electron     160.0000124 magnetization 
 augmentation part       50.0702231 magnetization 

 Broyden mixing:
  rms(total) = 0.62675E-01    rms(broyden)= 0.62659E-01
  rms(prec ) = 0.66831E-01
  weight for this iteration     100.00

 eigenvalues of (default mixing * dielectric matrix)
  average eigenvalue GAMMA=   0.7363
  1.8290  1.6064  1.6064  0.6549  0.6549  0.5300  0.5300  0.1596  0.4219  0.2059
  0.3181  0.3181

 Free energy of the ion-electron system (eV)
  ---------------------------------------------------
  alpha Z        PSCENC =       350.82459594
  Ewald energy   TEWEN  =     73410.14867536
  -Hartree energ DENC   =    -85464.12738518
  -exchange      EXHF   =         0.00000000
  -V(xc)+E(xc)   XCENC  =        41.17177625
  PAW double counting   =     14290.91957780   -13876.77611404
  entropy T*S    EENTRO =        -0.01062116
  eigenvalues    EBANDS =      -537.64817054
  atomic energy  EATOM  =     11693.69420960
  Solvation  Ediel_sol  =         0.00000000
  ---------------------------------------------------
  free energy    TOTEN  =       -91.80345598 eV

  energy without entropy =      -91.79283482  energy(sigma->0) =      -91.79991560


--------------------------------------------------------------------------------------------------------




--------------------------------------- Iteration      1(  18)  ---------------------------------------


    POTLOK:  cpu time    0.0188: real time    0.0189
    SETDIJ:  cpu time    0.0023: real time    0.0023
     EDDAV:  cpu time    7.4065: real time    7.4243
       DOS:  cpu time    0.0059: real time    0.0059
    CHARGE:  cpu time    0.3551: real time    0.3560
    MIXING:  cpu time    0.0018: real time    0.0018
    --------------------------------------------
      LOOP:  cpu time    7.7905: real time    7.8093

 eigenvalue-minimisations  : 12344
 total energy-change (2. order) : 0.1932757E-02  (-0.8835387E-03)
 number of electron     160.0000124 magnetization 
 augmentation part       50.0704192 magnetization 

 Broyden mixing:
  rms(total) = 0.48802E-01    rms(broyden)= 0.48799E-01
  rms(prec ) = 0.51801E-01
  weight for this iteration     100.00

 eigenvalues of (default mixing * dielectric matrix)
  average eigenvalue GAMMA=   0.7802
  2.2582  1.5886  1.5886  0.8920  0.8920  0.6711  0.4602  0.4602  0.1596  0.2060
  0.2985  0.3340  0.3340

 Free energy of the ion-electron system (eV)
  ---------------------------------------------------
  alpha Z        PSCENC =       350.82459594
  Ewald energy   TEWEN  =     73410.14867536
  -Hartree energ DENC   =    -85464.60370705
  -exchange      EXHF   =         0.00000000
  -V(xc)+E(xc)   XCENC  =        41.18016957
  PAW double counting   =     14294.30570307   -13880.15950054
  entropy T*S    EENTRO =        -0.00921048
  eigenvalues    EBANDS =      -537.18245870
  atomic energy  EATOM  =     11693.69420960
  Solvation  Ediel_sol  =         0.00000000
  ---------------------------------------------------
  free energy    TOTEN  =       -91.80152323 eV

[...]
     80      -0.1278      1.25987
     81      -0.0644      0.73079
     82       0.0180      0.18443
     83       0.0677      0.00898
     84       0.1318     -0.06859
     85       0.3074     -0.01494
     86       0.3843     -0.00350
     87       1.8247     -0.00000
     88       1.9347     -0.00000
     89       2.0971     -0.00000
     90       2.4728     -0.00000
     91       2.5597     -0.00000
     92       2.6685     -0.00000
     93       3.6027     -0.00000
     94       3.7088     -0.00000
     95       4.0385     -0.00000
     96       5.1296     -0.00000

 k-point    51 :      -0.4375    0.4375    0.0000
  band No.  band energies     occupation 
      1      -7.7097      2.00000
      2      -7.6409      2.00000
      3      -6.6665      2.00000
      4      -6.6154      2.00000
      5      -6.2425      2.00000
      6      -5.9766      2.00000
      7      -5.8731      2.00000
      8      -5.8309      2.00000
      9      -5.7796      2.00000
     10      -5.6721      2.00000
     11      -5.5973      2.00000
     12      -5.5323      2.00000
     13      -5.4849      2.00000
     14      -5.3362      2.00000
     15      -5.1847      2.00000
     16      -5.1462      2.00000
     17      -5.0877      2.00000
     18      -5.0587      2.00000
     19      -4.9346      2.00000
     20      -4.8116      2.00000
     21      -4.7478      2.00000
     22      -4.6626      2.00000
     23      -4.5770      2.00000
     24      -4.5141      2.00000
     25      -4.4970      2.00000
     26      -4.4423      2.00000
     27      -4.3522      2.00000
     28      -4.3115      2.00000
     29      -4.0661      2.00000
     30      -3.9676      2.00000
     31      -3.9075      2.00000
     32      -3.8591      2.00000
     33      -3.8058      2.00000
     34      -3.7360      2.00000
     35      -3.6526      2.00000
     36      -3.6077      2.00000
     37      -3.4833      2.00000
     38      -3.4106      2.00000
     39      -3.3638      2.00000
     40      -3.3252      2.00000
     41      -3.2415      2.00000
     42      -3.1383      2.00000
     43      -3.0985      2.00000
     44      -3.0638      2.00000
     45      -3.0087      2.00000
     46      -2.9587      2.00000
     47      -2.9368      2.00000
     48      -2.9238      2.00000
     49      -2.8637      2.00000
     50      -2.7607      2.00000
     51      -2.6734      2.00000
     52      -2.6201      2.00000
     53      -2.5171      2.00000
     54      -2.3724      2.00000
     55      -2.2504      2.00000
     56      -2.1965      2.00000
     57      -2.1456      2.00000
     58      -2.1145      2.00000
     59      -2.0038      2.00000
     60      -1.8973      2.00000
     61      -1.7338      2.00000
     62      -1.7084      2.00000
     63      -1.6189      2.00000
     64      -1.6008      2.00000
     65      -1.4480      2.00000
     66      -1.4052      2.00000
     67      -1.3574      2.00000
     68      -1.2739      2.00000
     69      -1.2406      2.00000
     70      -1.1452      2.00000
     71      -1.0863      2.00000
     72      -1.0259      2.00000
     73      -1.0098      2.00000
     74      -0.8603      2.00000
     75      -0.6468      2.00070
     76      -0.6116      2.00165
     77      -0.4864      2.01883
     78      -0.3878      2.05917
     79      -0.3001      2.05355
     80      -0.2373      1.92175
     81      -0.1794      1.63778
     82      -0.0417      0.55347
     83       0.0278      0.14017
     84       0.1234     -0.06531
     85       0.2789     -0.02322
     86       0.3612     -0.00562
     87       0.9469     -0.00000
     88       1.2983     -0.00000
     89       2.2371     -0.00000
     90       2.3291     -0.00000
     91       2.3558     -0.00000
     92       3.0670     -0.00000
     93       3.9765     -0.00000
     94       4.1948     -0.00000
     95       4.6990     -0.00000
     96       4.7688     -0.00000

 k-point    52 :       0.1250   -0.4375    0.0000
  band No.  band energies     occupation 
      1      -7.7020      2.00000
      2      -7.6495      2.00000
      3      -6.6592      2.00000
      4      -6.6219      2.00000
      5      -6.2415      2.00000
      6      -5.9724      2.00000
      7      -5.8756      2.00000
      8      -5.8216      2.00000
      9      -5.7894      2.00000
     10      -5.6707      2.00000
     11      -5.6036      2.00000
     12      -5.5337      2.00000
     13      -5.4856      2.00000
     14      -5.3345      2.00000
     15      -5.1882      2.00000
     16      -5.1508      2.00000
     17      -5.0732      2.00000
     18      -5.0597      2.00000
     19      -4.9395      2.00000
     20      -4.8207      2.00000
     21      -4.7361      2.00000
     22      -4.6604      2.00000
     23      -4.5968      2.00000
     24      -4.5115      2.00000
     25      -4.4979      2.00000
     26      -4.4193      2.00000
     27      -4.3577      2.00000
     28      -4.3184      2.00000
     29      -4.0371      2.00000
     30      -3.9586      2.00000
     31      -3.9149      2.00000
     32      -3.8615      2.00000
     33      -3.8088      2.00000
     34      -3.7612      2.00000
     35      -3.6301      2.00000
     36      -3.6170      2.00000
     37      -3.4690      2.00000
     38      -3.4207      2.00000
     39      -3.3700      2.00000
     40      -3.3341      2.00000
     41      -3.2524      2.00000
     42      -3.1159      2.00000
     43      -3.0863      2.00000
     44      -3.0788      2.00000
     45      -3.0039      2.00000
     46      -2.9813      2.00000
     47      -2.9462      2.00000
     48      -2.9172      2.00000
     49      -2.8501      2.00000
     50      -2.7617      2.00000
     51      -2.6876      2.00000
     52      -2.6035      2.00000
     53      -2.4832      2.00000
     54      -2.4010      2.00000
     55      -2.2513      2.00000
     56      -2.1957      2.00000
     57      -2.1696      2.00000
     58      -2.1135      2.00000
     59      -2.0097      2.00000
     60      -1.8867      2.00000
     61      -1.7560      2.00000
     62      -1.7148      2.00000
     63      -1.5923      2.00000
     64      -1.5350      2.00000
     65      -1.4971      2.00000
     66      -1.4144      2.00000
     67      -1.3363      2.00000
     68      -1.3247      2.00000
     69      -1.2376      2.00000
     70      -1.1505      2.00000
     71      -1.0888      2.00000
     72      -1.0043      2.00000
     73      -0.9648      2.00000
     74      -0.8811      2.00000
     75      -0.6633      2.00046
     76      -0.5383      2.00772
     77      -0.5226      2.01029
     78      -0.4224      2.04350
     79      -0.3068      2.05922
     80      -0.2316      1.90112
     81      -0.1522      1.45022
     82      -0.0369      0.51818
     83      -0.0201      0.40103
     84       0.1592     -0.07006
     85       0.2992     -0.01707
     86       0.3382     -0.00873
     87       0.9418     -0.00000
     88       1.2986     -0.00000
     89       2.2347     -0.00000
     90       2.2846     -0.00000
     91       2.4021     -0.00000
     92       3.0627     -0.00000
     93       3.9867     -0.00000
     94       4.1904     -0.00000
     95       4.7201     -0.00000
     96       4.7483     -0.00000


--------------------------------------------------------------------------------------------------------


 soft charge-density along one line, spin component           1
         0         1         2         3         4         5         6         7         8         9
 total charge-density along one line
 
 pseudopotential strength for first ion, spin component:           1
 -7.809  -0.001   0.001  -0.008   0.000  -7.961  -0.001   0.001
 -0.001  -7.788  -0.000  -0.001  -0.007  -0.001  -7.941  -0.000
  0.001  -0.000  -7.806  -0.001   0.001   0.001  -0.000  -7.958
 -0.008  -0.001  -0.001  -7.789  -0.001  -0.008  -0.001  -0.001
  0.000  -0.007   0.001  -0.001  -7.809   0.000  -0.006   0.001
 -7.961  -0.001   0.001  -0.008   0.000  -8.096  -0.001   0.001
 -0.001  -7.941  -0.000  -0.001  -0.006  -0.001  -8.076  -0.000
  0.001  -0.000  -7.958  -0.001   0.001   0.001  -0.000  -8.094
 -0.008  -0.001  -0.001  -7.941  -0.001  -0.007  -0.001  -0.001
  0.000  -0.006   0.001  -0.001  -7.961   0.000  -0.006   0.001
  0.000   0.000  -0.002   0.000   0.000   0.000   0.000  -0.002
  0.000   0.000  -0.003   0.001   0.000   0.000   0.000  -0.003
  0.000  -0.002  -0.000  -0.000  -0.000   0.000  -0.002  -0.000
 -0.000   0.000  -0.003   0.000  -0.000  -0.000   0.000  -0.003
 -0.000  -0.000  -0.000  -0.002   0.000  -0.000  -0.000  -0.000
  0.000  -0.003  -0.000  -0.000  -0.000   0.000  -0.003  -0.000
 -0.000   0.000  -0.004   0.000  -0.000  -0.000   0.000  -0.004
 -0.000  -0.000  -0.000  -0.003   0.000  -0.000  -0.000  -0.000
 total augmentation occupancy for first ion, spin component:           1
  6.180  -0.017   0.024   0.213   0.006  -4.183   0.013  -0.018  -0.315  -0.005  -0.002   0.000  -0.001   0.002   0.001   0.000
 -0.017   6.227  -0.009  -0.003   0.233   0.013  -4.012   0.007   0.003  -0.330  -0.002   0.001   0.006  -0.000  -0.000  -0.002
  0.024  -0.009   6.121  -0.016   0.014  -0.018   0.008  -4.213   0.013  -0.011   0.112  -0.036  -0.001   0.025  -0.002   0.000
  0.213  -0.003  -0.016   6.223  -0.017  -0.315   0.003   0.013  -4.009   0.013  -0.003   0.001  -0.000  -0.001   0.006   0.000
  0.006   0.233   0.014  -0.017   6.173  -0.005  -0.330  -0.011   0.013  -4.177  -0.001   0.000   0.002   0.001  -0.001  -0.000
 -4.183   0.013  -0.018  -0.315  -0.005   4.096  -0.010   0.014   0.391   0.004   0.000   0.001   0.001  -0.002  -0.003  -0.000
  0.013  -4.012   0.008   0.003  -0.330  -0.010   3.750  -0.006  -0.002   0.403   0.000   0.000  -0.012   0.000   0.000   0.001
 -0.018   0.007  -4.213   0.013  -0.011   0.014  -0.006   4.190  -0.011   0.008  -0.121   0.036   0.001  -0.026   0.001  -0.000
 -0.315   0.003   0.013  -4.009   0.013   0.391  -0.002  -0.011   3.748  -0.010   0.000   0.000   0.000   0.000  -0.012  -0.000
 -0.005  -0.330  -0.011   0.013  -4.177   0.004   0.403   0.008  -0.010   4.091   0.000   0.001  -0.003  -0.001   0.001   0.000
 -0.002  -0.002   0.112  -0.003  -0.001   0.000   0.000  -0.121   0.000   0.000   3.046  -0.838   0.000  -0.020   0.000   0.000
  0.000   0.001  -0.036   0.001   0.000   0.001   0.000   0.036   0.000   0.001  -0.838   0.254  -0.000   0.006  -0.000  -0.000
 -0.001   0.006  -0.001  -0.000   0.002   0.001  -0.012   0.001   0.000  -0.003   0.000  -0.000   0.250  -0.000   0.000  -0.008
  0.002  -0.000   0.025  -0.001   0.001  -0.002   0.000  -0.026   0.000  -0.001  -0.020   0.006  -0.000   0.237  -0.000   0.000
  0.001  -0.000  -0.002   0.006  -0.001  -0.003   0.000   0.001  -0.012   0.001   0.000  -0.000   0.000  -0.000   0.250   0.000
  0.000  -0.002   0.000   0.000  -0.000  -0.000   0.001  -0.000  -0.000   0.000   0.000  -0.000  -0.008   0.000   0.000   0.000
 -0.000   0.000  -0.003   0.000  -0.000   0.000  -0.000   0.001  -0.000   0.000   0.001  -0.000   0.000  -0.008   0.000  -0.000
 -0.000   0.000   0.000  -0.002   0.000   0.000  -0.000  -0.000   0.001  -0.000   0.000  -0.000   0.000   0.000  -0.008  -0.000


------------------------ aborting loop because EDIFF is reached ----------------------------------------



 DIPCOR: dipole corrections for dipol
 direction  3 min pos   243,
 dipolmoment           0.000000      0.000000      0.018820 electrons x Angstroem
 Tr[quadrupol]      -942.681312

 energy correction for charged system         0.000000 eV
 dipol+quadrupol energy correction            0.000045 eV
 added-field ion interaction          0.000000 eV  (added to PSCEN)

 
  *************** adding dipol energy to TOTEN NOW **************** 
    CHARGE:  cpu time    0.3534: real time    0.3543
    FORLOC:  cpu time    0.0043: real time    0.0043
    FORNL :  cpu time    1.4346: real time    1.4380
    STRESS:  cpu time    4.3686: real time    4.3790
    FORCOR:  cpu time    0.0245: real time    0.0246
    FORHAR:  cpu time    0.0086: real time    0.0086
    MIXING:  cpu time    0.0025: real time    0.0025
    OFIELD:  cpu time    0.0000: real time    0.0000

  FORCE on cell =-STRESS in cart. coord.  units (eV):
  Direction    XX          YY          ZZ          XY          YZ          ZX
  --------------------------------------------------------------------------------------
  Alpha Z   350.82460   350.82460   350.82460
  Ewald   82328.29956 82328.34653-91246.51338    -0.04068     0.06808     0.11792
  Hartree 84782.03354 84782.01672-84088.52623     0.01457     0.03770     0.06530
  E(xc)    -710.39307  -710.38135  -715.21989    -0.01014     0.00724     0.01254
  Local  ************************172438.52183    -0.11332     0.05756     0.09970
  n-local    60.05122    67.02866    46.22033     1.98125     0.31794    -0.39158
  augment   833.96122   833.89876   862.07007     0.05410    -0.03806    -0.06465
  Kinetic  2280.93780  2285.31102  2355.97717     1.40479     0.20948    -0.32688
  Fock        0.00000     0.00000     0.00000     0.00000     0.00000     0.00000
  -------------------------------------------------------------------------------------
  Total      -7.80645    -7.79052     3.35450    -0.01380    -0.04537    -0.07858
  in kB     -17.54142   -17.50561     7.53769    -0.03102    -0.10194    -0.17657
  external pressure =       -9.17 kB  Pullay stress =        0.00 kB


 VOLUME and BASIS-vectors are now :
 -----------------------------------------------------------------------------
  energy-cutoff  :      350.00
  volume of cell :      713.02
      direct lattice vectors                 reciprocal lattice vectors
     5.543717165  0.000000000  0.000000000     0.180384383 -0.104144972  0.000000000
     2.771858582  4.800999896  0.000000000     0.000000000  0.208289944  0.000000000
     0.000000000  0.000000000 26.789639166     0.000000000  0.000000000  0.037327864

  length of vectors
     5.543717165  5.543717165 26.789639166     0.208289944  0.208289944  0.037327864


 FORCES acting on ions
    electron-ion (+dipol)            ewald-force                    non-local-force                 convergence-correction
 -----------------------------------------------------------------------------------------------
   -.303E+00 -.175E+00 -.964E+03   0.284E+00 0.164E+00 0.964E+03   0.550E-02 0.317E-02 0.303E+00   0.536E-02 0.309E-02 0.614E-01
   -.241E+00 -.139E+00 0.243E+04   0.232E+00 0.134E+00 -.243E+04   -.165E-01 -.951E-02 -.299E+00   -.431E-02 -.249E-02 -.770E-02
   0.282E+00 -.202E+00 0.270E+04   -.258E+00 0.149E+00 -.270E+04   0.453E-03 0.665E-01 -.101E+01   0.508E-02 0.114E-02 -.168E-01
   0.447E-01 0.258E-01 0.270E+04   -.109E-11 -.647E-12 -.270E+04   -.626E-01 -.362E-01 -.898E+00   -.357E-02 -.206E-02 -.105E-01
   -.340E-01 0.346E+00 0.270E+04   -.107E-11 -.298E+00 -.270E+04   0.578E-01 -.328E-01 -.101E+01   0.353E-02 0.383E-02 -.168E-01
   -.501E+01 -.261E+01 0.943E+03   0.522E+01 0.269E+01 -.944E+03   -.160E-01 -.189E-01 0.171E+00   -.145E-02 0.298E-02 0.280E-01
   0.502E+01 0.290E+01 0.938E+03   -.522E+01 -.301E+01 -.938E+03   0.220E-01 0.127E-01 0.116E+00   0.138E-02 0.795E-03 0.280E-01
   0.478E+01 0.276E+01 0.938E+03   -.494E+01 -.285E+01 -.938E+03   0.122E-01 0.704E-02 0.151E+00   -.176E-02 -.102E-02 0.272E-01
   -.477E+01 -.303E+01 0.943E+03   0.494E+01 0.317E+01 -.944E+03   -.244E-01 -.444E-02 0.171E+00   0.185E-02 -.274E-02 0.280E-01
   0.215E-01 0.124E-01 -.877E+03   -.284E-11 -.177E-11 0.876E+03   -.552E-01 -.319E-01 0.522E+00   0.645E-02 0.372E-02 0.568E-01
   -.300E-01 0.335E+00 -.877E+03   -.285E-11 -.298E+00 0.876E+03   0.501E-01 -.481E-01 0.424E+00   -.638E-02 -.180E-02 0.625E-01
   0.275E+00 -.194E+00 -.877E+03   -.258E+00 0.149E+00 0.876E+03   -.166E-01 0.675E-01 0.424E+00   -.475E-02 -.463E-02 0.625E-01
   0.455E+01 -.262E+01 -.267E+04   -.473E+01 0.273E+01 0.267E+04   0.776E-01 -.268E-01 0.100E+01   -.298E-03 0.159E-02 0.582E-01
   -.456E+01 -.263E+01 -.267E+04   0.473E+01 0.273E+01 0.267E+04   -.656E-01 -.379E-01 0.998E+00   0.201E-03 0.116E-03 0.604E-01
   -.142E-01 -.821E-02 -.267E+04   0.104E-11 0.655E-12 0.267E+04   -.824E-02 -.476E-02 0.869E+00   -.116E-02 -.669E-03 0.575E-01
   0.458E-02 0.525E+01 -.267E+04   0.645E-12 -.546E+01 0.267E+04   0.156E-01 0.806E-01 0.100E+01   0.122E-02 -.105E-02 0.582E-01
 -----------------------------------------------------------------------------------------------
   0.227E-01 0.131E-01 -.346E+01   -.292E-13 -.799E-14 -.182E-11   -.240E-01 -.139E-01 0.294E+01   0.140E-02 0.806E-03 0.537E+00
 
 
 POSITION                                       TOTAL-FORCE (eV/Angst)
 -----------------------------------------------------------------------------------
      4.15779      4.00083     14.56863        -0.007767     -0.004484      0.198489
      2.77186      0.00000     10.00000        -0.029732     -0.017166      0.767390
      0.00000      0.00000     10.00000         0.029757      0.014401     -0.501052
      1.38593      2.40050     10.00000        -0.021553     -0.012444     -0.806989
      4.15779      2.40050     10.00000         0.027351      0.018570     -0.501052
      1.38593      0.80017     12.26321         0.187191      0.063193     -0.013250
      4.15779      0.80017     12.26321        -0.167727     -0.096837      0.191093
      2.77186      3.20067     12.26321        -0.146657     -0.084673      0.356030
      5.54372      3.20067     12.26321         0.148322      0.130516     -0.013250
      5.54372      1.60033     14.56863        -0.027253     -0.015734     -0.175861
      2.77186      1.60033     14.56863         0.013711     -0.012715      0.055215
      6.92965      4.00083     14.56863        -0.004156      0.018231      0.055215
      0.00000      0.00000     16.90767        -0.102721      0.083996      0.152101
      2.77186      0.00000     16.90767         0.103476      0.059742      0.147938
      1.38593      2.40050     16.90767        -0.023622     -0.013638     -0.064119
      4.15779      2.40050     16.90767         0.021382     -0.130957      0.152101
 -----------------------------------------------------------------------------------
    total drift:                                0.000064      0.000037      0.010492


--------------------------------------------------------------------------------------------------------



  FREE ENERGIE OF THE ION-ELECTRON SYSTEM (eV)
  ---------------------------------------------------
  free  energy   TOTEN  =       -91.79875010 eV

  energy  without entropy=      -91.78877027  energy(sigma->0) =      -91.79542349
 


--------------------------------------------------------------------------------------------------------


    POTLOK:  cpu time    0.0220: real time    0.0220


--------------------------------------------------------------------------------------------------------


     LOOP+:  cpu time  198.9278: real time  199.4866
    4ORBIT:  cpu time    0.0000: real time    0.0000

 total amount of memory used by VASP MPI-rank0    94183. kBytes
=======================================================================

   base      :      30000. kBytes
   nonlr-proj:       2110. kBytes
   fftplans  :       2594. kBytes
   grid      :       4625. kBytes
   one-center:         62. kBytes
   wavefun   :      54792. kBytes
 
  
  
 General timing and accounting informations for this job:
 ========================================================
  
                  Total CPU time used (sec):      202.689
                            User time (sec):      201.967
                          System time (sec):        0.722
                         Elapsed time (sec):      203.471
  
                   Maximum memory used (kb):      127816.
                   Average memory used (kb):           0.
  
                          Minor page faults:        68000
                          Major page faults:            0
                 Voluntary context switches:          441
