       N       E                     dE             d eps       ncg     rms          rms(c)
DAV:   1     0.101967882895E+04    0.10197E+04   -0.58215E+04 19264   0.103E+03
DAV:   2    -0.294587793784E+02   -0.10491E+04   -0.97485E+03 23920   0.258E+02
DAV:   3    -0.121294540526E+03   -0.91836E+02   -0.84891E+02 22920   0.757E+01
DAV:   4    -0.125702434797E+03   -0.44079E+01   -0.42066E+01 25848   0.168E+01
DAV:   5    -0.125841857839E+03   -0.13942E+00   -0.13817E+00 27128   0.292E+00    0.425E+01
DAV:   6    -0.118946503205E+03    0.68954E+01   -0.29712E+01 21908   0.204E+01    0.312E+01
DAV:   7    -0.142474919670E+03   -0.23528E+02   -0.99799E+01 23944   0.558E+01    0.442E+01
DAV:   8    -0.120453125732E+03    0.22022E+02   -0.40687E+01 25352   0.321E+01    0.193E+01
DAV:   9    -0.123517318142E+03   -0.30642E+01   -0.51443E+01 22416   0.315E+01    0.249E+01
DAV:  10    -0.125170349642E+03   -0.16530E+01   -0.28806E+01 27488   0.346E+01    0.282E+01
DAV:  11    -0.118347804987E+03    0.68225E+01   -0.24992E+01 32912   0.279E+01    0.151E+01
DAV:  12    -0.116069068285E+03    0.22787E+01   -0.74393E+00 23220   0.124E+01    0.404E+00
DAV:  13    -0.116068321917E+03    0.74637E-03   -0.65946E-01 23512   0.312E+00    0.304E+00
DAV:  14    -0.116037714478E+03    0.30607E-01   -0.15390E-01 27712   0.184E+00    0.177E+00
DAV:  15    -0.116055547536E+03   -0.17833E-01   -0.10563E-01 28156   0.148E+00    0.225E+00
DAV:  16    -0.116032588915E+03    0.22959E-01   -0.93594E-02 27620   0.136E+00    0.101E+00
DAV:  17    -0.116028347495E+03    0.42414E-02   -0.28333E-02 23852   0.716E-01    0.578E-01
DAV:  18    -0.116027485673E+03    0.86182E-03   -0.71468E-03 21640   0.383E-01    0.433E-01
DAV:  19    -0.116027545969E+03   -0.60297E-04   -0.28234E-03 26024   0.215E-01    0.398E-01
DAV:  20    -0.116027224841E+03    0.32113E-03   -0.21217E-03 22888   0.183E-01    0.243E-01
DAV:  21    -0.116027116645E+03    0.10820E-03   -0.87271E-04 27572   0.125E-01    0.158E-01
DAV:  22    -0.116027127937E+03   -0.11291E-04   -0.49778E-04 22276   0.997E-02    0.938E-02
DAV:  23    -0.116027199130E+03   -0.71194E-04   -0.95308E-05 20584   0.455E-02    0.762E-02
DAV:  24    -0.116027280652E+03   -0.81522E-04   -0.90111E-05 16036   0.483E-02    0.440E-02
DAV:  25    -0.116027424043E+03   -0.14339E-03   -0.14822E-04 20612   0.497E-02    0.286E-02
DAV:  26    -0.116027473598E+03   -0.49554E-04   -0.27797E-05 12488   0.245E-02    0.196E-02
DAV:  27    -0.116027507840E+03   -0.34243E-04   -0.98784E-06 10588   0.138E-02    0.157E-02
DAV:  28    -0.116027649618E+03   -0.14178E-03   -0.14891E-05 12312   0.164E-02    0.137E-02
DAV:  29    -0.116027776549E+03   -0.12693E-03   -0.12158E-05 12668   0.137E-02    0.125E-02
DAV:  30    -0.116027900765E+03   -0.12422E-03   -0.10863E-05 12576   0.115E-02    0.141E-02
DAV:  31    -0.116027936449E+03   -0.35685E-04   -0.34799E-06 11048   0.744E-03    0.855E-03
DAV:  32    -0.116027980895E+03   -0.44445E-04   -0.26569E-06 11640   0.600E-03    0.545E-03
DAV:  33    -0.116027994099E+03   -0.13204E-04   -0.11032E-06 10680   0.381E-03    0.364E-03
DAV:  34    -0.116028006425E+03   -0.12327E-04   -0.52310E-07 10748   0.251E-03    0.264E-03
DAV:  35    -0.116028010926E+03   -0.45001E-05   -0.18688E-07 10072   0.161E-03
   1 F= -.11602717E+03 E0= -.11601388E+03  d E =-.398650E-01
