       N       E                     dE             d eps       ncg     rms          rms(c)
DAV:   1     0.102496316655E+04    0.10250E+04   -0.58277E+04 19288   0.103E+03
DAV:   2    -0.285596993874E+02   -0.10535E+04   -0.97744E+03 23824   0.259E+02
DAV:   3    -0.120756106346E+03   -0.92196E+02   -0.85142E+02 22944   0.760E+01
DAV:   4    -0.125251626972E+03   -0.44955E+01   -0.42728E+01 25632   0.170E+01
DAV:   5    -0.125395485281E+03   -0.14386E+00   -0.14252E+00 26948   0.299E+00    0.429E+01
DAV:   6    -0.120329644917E+03    0.50658E+01   -0.34045E+01 22808   0.242E+01    0.360E+01
DAV:   7    -0.172630265302E+03   -0.52301E+02   -0.23551E+02 29392   0.811E+01    0.583E+01
DAV:   8    -0.145941124835E+03    0.26689E+02   -0.99215E+01 27576   0.428E+01    0.453E+01
DAV:   9    -0.136784058349E+03    0.91571E+01   -0.61906E+01 32744   0.467E+01    0.333E+01
DAV:  10    -0.118862314745E+03    0.17922E+02   -0.44689E+01 26792   0.368E+01    0.180E+01
DAV:  11    -0.117154528939E+03    0.17078E+01   -0.21118E+01 27984   0.190E+01    0.143E+01
DAV:  12    -0.116007058323E+03    0.11475E+01   -0.94846E+00 25232   0.108E+01    0.726E+00
DAV:  13    -0.115777035077E+03    0.23002E+00   -0.36433E-01 25288   0.278E+00    0.555E+00
DAV:  14    -0.115676443339E+03    0.10059E+00   -0.12195E-01 28772   0.173E+00    0.516E+00
DAV:  15    -0.115641755527E+03    0.34688E-01   -0.32425E-02 24224   0.689E-01    0.453E+00
DAV:  16    -0.115599874056E+03    0.41881E-01   -0.33326E-01 21372   0.289E+00    0.230E+00
DAV:  17    -0.115562011701E+03    0.37862E-01   -0.16152E-01 25172   0.204E+00    0.122E+00
DAV:  18    -0.115547387539E+03    0.14624E-01   -0.30590E-02 23736   0.785E-01    0.653E-01
DAV:  19    -0.115545243705E+03    0.21438E-02   -0.12410E-02 22360   0.513E-01    0.540E-01
DAV:  20    -0.115542553067E+03    0.26906E-02   -0.79837E-03 24348   0.388E-01    0.243E-01
DAV:  21    -0.115542444413E+03    0.10865E-03   -0.35149E-03 23464   0.239E-01    0.315E-01
DAV:  22    -0.115542636781E+03   -0.19237E-03   -0.11965E-03 23704   0.138E-01    0.382E-01
DAV:  23    -0.115541528750E+03    0.11080E-02   -0.54776E-03 25648   0.286E-01    0.133E-01
DAV:  24    -0.115541467051E+03    0.61698E-04   -0.49139E-04 23276   0.797E-02    0.687E-02
DAV:  25    -0.115541502303E+03   -0.35252E-04   -0.12752E-04 20924   0.482E-02    0.417E-02
DAV:  26    -0.115541591911E+03   -0.89608E-04   -0.63470E-05 18096   0.355E-02    0.239E-02
DAV:  27    -0.115541730863E+03   -0.13895E-03   -0.70778E-05 18904   0.294E-02    0.279E-02
DAV:  28    -0.115541813371E+03   -0.82508E-04   -0.29304E-05 14624   0.212E-02    0.256E-02
DAV:  29    -0.115541919181E+03   -0.10581E-03   -0.15195E-05 12640   0.149E-02    0.200E-02
DAV:  30    -0.115541987403E+03   -0.68222E-04   -0.70893E-06 11308   0.106E-02    0.165E-02
DAV:  31    -0.115542086284E+03   -0.98881E-04   -0.58807E-06 11864   0.963E-03    0.931E-03
DAV:  32    -0.115542133993E+03   -0.47709E-04   -0.26874E-06 11340   0.587E-03    0.646E-03
DAV:  33    -0.115542200182E+03   -0.66189E-04   -0.32993E-06 11852   0.653E-03    0.748E-03
DAV:  34    -0.115542238046E+03   -0.37863E-04   -0.18965E-06 11820   0.463E-03    0.640E-03
DAV:  35    -0.115542245980E+03   -0.79340E-05   -0.70430E-07 10668   0.279E-03
   1 F= -.11553924E+03 E0= -.11552949E+03  d E =-.292485E-01
