 vasp.5.4.4.18Apr17-6-g9f103f2a35 (build Apr 28 2017 10:53:45) complex          
  
 executed on             LinuxIFC date 2019.07.18  17:12:34
 running on   16 total cores
 distrk:  each k-point on   16 cores,    1 groups
 distr:  one band on NCORES_PER_BAND=   4 cores,    4 groups


--------------------------------------------------------------------------------------------------------


 INCAR:
 POTCAR:    PAW_PBE Au 04Oct2007                  
 POTCAR:    PAW_PBE C 08Apr2002                   
 POTCAR:    PAW_PBE H 15Jun2001                   
 POTCAR:    PAW_PBE Ir 06Sep2000                  
 POTCAR:    PAW_PBE Pt 04Feb2005                  
 POTCAR:    PAW_PBE Au 04Oct2007                  
   VRHFIN =Au: s1d10                                                            
   LEXCH  = PE                                                                  
   EATOM  =   926.0867 eV,   68.0654 Ry                                         
                                                                                
   TITEL  = PAW_PBE Au 04Oct2007                                                
   LULTRA =        F    use ultrasoft PP ?                                      
   IUNSCR =        1    unscreen: 0-lin 1-nonlin 2-no                           
   RPACOR =    2.330    partial core radius                                     
   POMASS =  196.966; ZVAL   =   11.000    mass and valenz                      
   RCORE  =    2.500    outmost cutoff radius                                   
   RWIGS  =    2.840; RWIGS  =    1.503    wigner-seitz radius (au A)           
   ENMAX  =  229.943; ENMIN  =  172.457 eV                                      
   ICORE  =        3    local potential                                         
   LCOR   =        T    correct aug charges                                     
   LPAW   =        T    paw PP                                                  
   EAUG   =  356.670                                                            
   DEXC   =    0.000                                                            
   RMAX   =    2.562    core radius for proj-oper                               
   RAUG   =    1.300    factor for augmentation sphere                          
   RDEP   =    2.598    radius for radial grids                                 
   RDEPT  =    2.193    core radius for aug-charge                              
                                                                                
   Atomic configuration                                                         
   16 entries                                                                   
     n  l   j            E        occ.                                          
     1  0  0.50    -80748.5001   2.0000                                         
     2  0  0.50    -14244.7466   2.0000                                         
     2  1  1.50    -12310.9591   6.0000                                         
     3  0  0.50     -3362.1768   2.0000                                         
     3  1  1.50     -2801.5463   6.0000                                         
     3  2  2.50     -2203.8206  10.0000                                         
     4  0  0.50      -729.8168   2.0000                                         
     4  1  1.50      -546.0527   6.0000                                         
     4  2  2.50      -325.7302  10.0000                                         
     4  3  3.50       -81.1472  14.0000                                         
     5  0  0.50      -108.3201   2.0000                                         
     5  1  1.50       -59.7479   6.0000                                         
     5  2  2.50        -6.8783  10.0000                                         
     6  0  0.50        -5.7602   1.0000                                         
     6  1  1.50        -6.8029   0.0000                                         
     5  3  2.50        -1.3606   0.0000                                         
   Description                                                                  
     l       E           TYP  RCUT    TYP  RCUT                                 
     2     -6.8782861     23  2.500                                             
     2     -8.2388687     23  2.500                                             
     0     -5.7601759     23  2.500                                             
     0     -0.8493231     23  2.500                                             
     1     -2.7211652     23  2.500                                             
     1     27.2116520     23  2.500                                             
     3     -1.3605826     23  2.500                                             
  local pseudopotential read in
  partial core-charges read in
  partial kinetic energy density read in
  atomic valenz-charges read in
  non local Contribution for L=           2  read in
    real space projection operators read in
  non local Contribution for L=           2  read in
    real space projection operators read in
  non local Contribution for L=           0  read in
    real space projection operators read in
  non local Contribution for L=           0  read in
    real space projection operators read in
  non local Contribution for L=           1  read in
    real space projection operators read in
  non local Contribution for L=           1  read in
    real space projection operators read in
    PAW grid and wavefunctions read in
 
   number of l-projection  operators is LMAX  =           6
   number of lm-projection operators is LMMAX =          18
 
 POTCAR:    PAW_PBE C 08Apr2002                   
   VRHFIN =C: s2p2                                                              
   LEXCH  = PE                                                                  
   EATOM  =   147.1560 eV,   10.8157 Ry                                         
                                                                                
   TITEL  = PAW_PBE C 08Apr2002                                                 
   LULTRA =        F    use ultrasoft PP ?                                      
   IUNSCR =        1    unscreen: 0-lin 1-nonlin 2-no                           
   RPACOR =    1.200    partial core radius                                     
   POMASS =   12.011; ZVAL   =    4.000    mass and valenz                      
   RCORE  =    1.500    outmost cutoff radius                                   
   RWIGS  =    1.630; RWIGS  =    0.863    wigner-seitz radius (au A)           
   ENMAX  =  400.000; ENMIN  =  300.000 eV                                      
   ICORE  =        2    local potential                                         
   LCOR   =        T    correct aug charges                                     
   LPAW   =        T    paw PP                                                  
   EAUG   =  644.873                                                            
   DEXC   =    0.000                                                            
   RMAX   =    1.529    core radius for proj-oper                               
   RAUG   =    1.300    factor for augmentation sphere                          
   RDEP   =    1.501    radius for radial grids                                 
   RDEPT  =    1.300    core radius for aug-charge                              
                                                                                
   Atomic configuration                                                         
    4 entries                                                                   
     n  l   j            E        occ.                                          
     1  0  0.50      -273.3789   2.0000                                         
     2  0  0.50       -13.7508   2.0000                                         
     2  1  0.50        -5.2854   2.0000                                         
     3  2  1.50        -5.4423   0.0000                                         
   Description                                                                  
     l       E           TYP  RCUT    TYP  RCUT                                 
     0    -13.7508458     23  1.200                                             
     0     -8.2022199     23  1.200                                             
     1     -5.2854383     23  1.500                                             
     1     34.0145650     23  1.500                                             
     2     -5.4423304      7  1.500                                             
  local pseudopotential read in
  partial core-charges read in
  partial kinetic energy density read in
  atomic valenz-charges read in
  non local Contribution for L=           0  read in
    real space projection operators read in
  non local Contribution for L=           0  read in
    real space projection operators read in
  non local Contribution for L=           1  read in
    real space projection operators read in
  non local Contribution for L=           1  read in
    real space projection operators read in
    PAW grid and wavefunctions read in
 
   number of l-projection  operators is LMAX  =           4
   number of lm-projection operators is LMMAX =           8
 
 POTCAR:    PAW_PBE H 15Jun2001                   
   VRHFIN =H: ultrasoft test                                                    
   LEXCH  = PE                                                                  
   EATOM  =    12.4884 eV,    0.9179 Ry                                         
                                                                                
   TITEL  = PAW_PBE H 15Jun2001                                                 
   LULTRA =        F    use ultrasoft PP ?                                      
   IUNSCR =        0    unscreen: 0-lin 1-nonlin 2-no                           
   RPACOR =    0.000    partial core radius                                     
   POMASS =    1.000; ZVAL   =    1.000    mass and valenz                      
   RCORE  =    1.100    outmost cutoff radius                                   
   RWIGS  =    0.700; RWIGS  =    0.370    wigner-seitz radius (au A)           
   ENMAX  =  250.000; ENMIN  =  200.000 eV                                      
   RCLOC  =    0.701    cutoff for local pot                                    
   LCOR   =        T    correct aug charges                                     
   LPAW   =        T    paw PP                                                  
   EAUG   =  400.000                                                            
   RMAX   =    1.123    core radius for proj-oper                               
   RAUG   =    1.200    factor for augmentation sphere                          
   RDEP   =    1.112    radius for radial grids                                 
   RDEPT  =    0.926    core radius for aug-charge                              
                                                                                
   Atomic configuration                                                         
    2 entries                                                                   
     n  l   j            E        occ.                                          
     1  0  0.50        -6.4927   1.0000                                         
     2  1  0.50        -3.4015   0.0000                                         
   Description                                                                  
     l       E           TYP  RCUT    TYP  RCUT                                 
     0     -6.4927494     23  1.100                                             
     0      6.8029130     23  1.100                                             
     1     -4.0817478     23  1.100                                             
  local pseudopotential read in
  atomic valenz-charges read in
  non local Contribution for L=           0  read in
    real space projection operators read in
  non local Contribution for L=           0  read in
    real space projection operators read in
  non local Contribution for L=           1  read in
    real space projection operators read in
    PAW grid and wavefunctions read in
 
   number of l-projection  operators is LMAX  =           3
   number of lm-projection operators is LMMAX =           5
 
 POTCAR:    PAW_PBE Ir 06Sep2000                  
   VRHFIN =Ir: s1d8                                                             
   LEXCH  = PE                                                                  
   EATOM  =   560.1833 eV,   41.1723 Ry                                         
                                                                                
   TITEL  = PAW_PBE Ir 06Sep2000                                                
   LULTRA =        F    use ultrasoft PP ?                                      
   IUNSCR =        1    unscreen: 0-lin 1-nonlin 2-no                           
   RPACOR =    2.250    partial core radius                                     
   POMASS =  192.220; ZVAL   =    9.000    mass and valenz                      
   RCORE  =    2.600    outmost cutoff radius                                   
   RWIGS  =    2.690; RWIGS  =    1.423    wigner-seitz radius (au A)           
   ENMAX  =  210.864; ENMIN  =  158.148 eV                                      
   RCLOC  =    1.857    cutoff for local pot                                    
   LCOR   =        T    correct aug charges                                     
   LPAW   =        T    paw PP                                                  
   EAUG   =  318.962                                                            
   DEXC   =    0.000                                                            
   RMAX   =    2.667    core radius for proj-oper                               
   RAUG   =    1.300    factor for augmentation sphere                          
   RDEP   =    2.748    radius for radial grids                                 
   RDEPT  =    2.300    core radius for aug-charge                              
                                                                                
   Atomic configuration                                                         
   16 entries                                                                   
     n  l   j            E        occ.                                          
     1  0  0.50    -76100.0449   2.0000                                         
     2  0  0.50    -13308.1683   2.0000                                         
     2  1  1.50    -11558.0021   6.0000                                         
     3  0  0.50     -3110.7274   2.0000                                         
     3  1  1.50     -2599.2109   6.0000                                         
     3  2  2.50     -2037.1515  10.0000                                         
     4  0  0.50      -661.6001   2.0000                                         
     4  1  1.50      -493.8981   6.0000                                         
     4  2  2.50      -288.1909  10.0000                                         
     4  3  3.50       -59.5718  14.0000                                         
     5  0  0.50       -95.3879   2.0000                                         
     5  1  1.50       -52.2747   6.0000                                         
     5  2  2.50        -5.4180   8.0000                                         
     6  0  0.50        -5.5479   1.0000                                         
     6  1  1.50        -6.8029   0.0000                                         
     5  3  2.50        -1.3606   0.0000                                         
   Description                                                                  
     l       E           TYP  RCUT    TYP  RCUT                                 
     2     -5.4179967     23  2.600                                             
     2     -6.7785793     23  2.600                                             
     0     -5.5478636     23  2.600                                             
     0      2.2542272     23  2.600                                             
     1     -2.7211652     23  2.600                                             
     1     20.4087390     23  2.600                                             
  local pseudopotential read in
  partial core-charges read in
  partial kinetic energy density read in
  atomic valenz-charges read in
  non local Contribution for L=           2  read in
    real space projection operators read in
  non local Contribution for L=           2  read in
    real space projection operators read in
  non local Contribution for L=           0  read in
    real space projection operators read in
  non local Contribution for L=           0  read in
    real space projection operators read in
  non local Contribution for L=           1  read in
    real space projection operators read in
  non local Contribution for L=           1  read in
    real space projection operators read in
    PAW grid and wavefunctions read in
 
   number of l-projection  operators is LMAX  =           6
   number of lm-projection operators is LMMAX =          18
 
 POTCAR:    PAW_PBE Pt 04Feb2005                  
   VRHFIN =Pt: s1d9                                                             
   LEXCH  = PE                                                                  
   EATOM  =   729.1176 eV,   53.5886 Ry                                         
                                                                                
   TITEL  = PAW_PBE Pt 04Feb2005                                                
   LULTRA =        F    use ultrasoft PP ?                                      
   IUNSCR =        1    unscreen: 0-lin 1-nonlin 2-no                           
   RPACOR =    2.330    partial core radius                                     
   POMASS =  195.080; ZVAL   =   10.000    mass and valenz                      
   RCORE  =    2.600    outmost cutoff radius                                   
   RWIGS  =    2.750; RWIGS  =    1.455    wigner-seitz radius (au A)           
   ENMAX  =  230.283; ENMIN  =  172.712 eV                                      
   ICORE  =        3    local potential                                         
   LCOR   =        T    correct aug charges                                     
   LPAW   =        T    paw PP                                                  
   EAUG   =  358.966                                                            
   DEXC   =    0.000                                                            
   RMAX   =    2.658    core radius for proj-oper                               
   RAUG   =    1.300    factor for augmentation sphere                          
   RDEP   =    2.761    radius for radial grids                                 
   RDEPT  =    2.203    core radius for aug-charge                              
                                                                                
   Atomic configuration                                                         
   16 entries                                                                   
     n  l   j            E        occ.                                          
     1  0  0.50    -78401.1885   2.0000                                         
     2  0  0.50    -13770.7750   2.0000                                         
     2  1  1.50    -11931.0468   6.0000                                         
     3  0  0.50     -3234.7234   2.0000                                         
     3  1  1.50     -2699.2216   6.0000                                         
     3  2  2.50     -2119.5714  10.0000                                         
     4  0  0.50      -695.1528   2.0000                                         
     4  1  1.50      -519.6034   6.0000                                         
     4  2  2.50      -306.6786  10.0000                                         
     4  3  3.50       -70.1041  14.0000                                         
     5  0  0.50      -101.7747   2.0000                                         
     5  1  1.50       -55.9873   6.0000                                         
     5  2  2.50        -6.1423   9.0000                                         
     6  0  0.50        -5.6573   1.0000                                         
     6  1  1.50        -6.8029   0.0000                                         
     5  3  2.50        -1.3606   0.0000                                         
   Description                                                                  
     l       E           TYP  RCUT    TYP  RCUT                                 
     2     -6.1423404     23  2.500                                             
     2     -7.5029230     23  2.500                                             
     0     -5.6573207     23  2.500                                             
     0      0.7416693     23  2.500                                             
     1     -2.7211652     23  2.600                                             
     1     20.4087390     23  2.600                                             
     3     -1.3605826     23  2.500                                             
  local pseudopotential read in
  partial core-charges read in
  partial kinetic energy density read in
  atomic valenz-charges read in
  non local Contribution for L=           2  read in
    real space projection operators read in
  non local Contribution for L=           2  read in
    real space projection operators read in
  non local Contribution for L=           0  read in
    real space projection operators read in
  non local Contribution for L=           0  read in
    real space projection operators read in
  non local Contribution for L=           1  read in
    real space projection operators read in
  non local Contribution for L=           1  read in
    real space projection operators read in
    PAW grid and wavefunctions read in
 
   number of l-projection  operators is LMAX  =           6
   number of lm-projection operators is LMMAX =          18
 
 Optimization of the real space projectors (new method)

 maximal supplied QI-value         = 15.12
 optimisation between [QCUT,QGAM] = [  9.52, 19.05] = [ 25.40,101.61] Ry 
 Optimized for a Real-space Cutoff    1.57 Angstroem

   l    n(q)    QCUT    max X(q) W(low)/X(q) W(high)/X(q)  e(spline) 
   2      8     9.524    60.898    0.38E-03    0.43E-04    0.84E-07
   2      8     9.524    58.894    0.38E-03    0.47E-04    0.88E-07
   0      9     9.524   109.617    0.60E-04    0.64E-04    0.80E-07
   0      9     9.524    75.026    0.59E-04    0.62E-04    0.78E-07
   1      8     9.524    16.344    0.99E-04    0.18E-03    0.87E-07
   1      8     9.524    10.160    0.78E-04    0.15E-03    0.74E-07
 Optimization of the real space projectors (new method)

 maximal supplied QI-value         = 25.13
 optimisation between [QCUT,QGAM] = [  9.55, 19.10] = [ 25.54,102.17] Ry 
 Optimized for a Real-space Cutoff    1.39 Angstroem

   l    n(q)    QCUT    max X(q) W(low)/X(q) W(high)/X(q)  e(spline) 
   0      8     9.551   115.676    0.39E-03    0.54E-03    0.29E-06
   0      8     9.551    87.132    0.39E-03    0.54E-03    0.28E-06
   1      7     9.551     4.429    0.35E-03    0.51E-04    0.29E-06
   1      7     9.551     2.733    0.22E-03    0.42E-04    0.31E-06
 Optimization of the real space projectors (new method)

 maximal supplied QI-value         = 34.20
 optimisation between [QCUT,QGAM] = [  9.58, 19.15] = [ 25.68,102.74] Ry 
 Optimized for a Real-space Cutoff    1.31 Angstroem

   l    n(q)    QCUT    max X(q) W(low)/X(q) W(high)/X(q)  e(spline) 
   0      7     9.577    19.460    0.33E-03    0.12E-03    0.35E-06
   0      7     9.577    12.209    0.33E-03    0.11E-03    0.33E-06
   1      7     9.577     4.655    0.39E-03    0.14E-02    0.33E-06
 Optimization of the real space projectors (new method)

 maximal supplied QI-value         = 14.36
 optimisation between [QCUT,QGAM] = [  9.48, 19.10] = [ 25.16,102.17] Ry 
 Optimized for a Real-space Cutoff    1.57 Angstroem

   l    n(q)    QCUT    max X(q) W(low)/X(q) W(high)/X(q)  e(spline) 
   2      8     9.479   134.116    0.18E-03    0.75E-03    0.26E-06
   2      8     9.479   130.192    0.18E-03    0.75E-03    0.27E-06
   0      9     9.479    60.310    0.39E-03    0.24E-03    0.63E-07
   0      9     9.479    39.218    0.36E-03    0.22E-03    0.59E-07
   1      8     9.479    18.439    0.20E-03    0.15E-03    0.16E-06
   1      8     9.479    12.760    0.16E-03    0.11E-03    0.13E-06
 Optimization of the real space projectors (new method)

 maximal supplied QI-value         = 14.36
 optimisation between [QCUT,QGAM] = [  9.48, 19.10] = [ 25.16,102.17] Ry 
 Optimized for a Real-space Cutoff    1.57 Angstroem

   l    n(q)    QCUT    max X(q) W(low)/X(q) W(high)/X(q)  e(spline) 
   2      8     9.479    66.195    0.35E-03    0.53E-04    0.87E-07
   2      8     9.479    64.643    0.35E-03    0.57E-04    0.91E-07
   0      9     9.479    95.520    0.50E-04    0.62E-04    0.81E-07
   0      9     9.479    63.403    0.49E-04    0.60E-04    0.78E-07
   1      8     9.479    19.961    0.10E-03    0.87E-04    0.11E-06
   1      8     9.479    13.289    0.88E-04    0.71E-04    0.97E-07
  PAW_PBE Au 04Oct2007                  :
 energy of atom  1       EATOM= -926.0867
 kinetic energy error for atom=    0.0152 (will be added to EATOM!!)
  PAW_PBE C 08Apr2002                   :
 energy of atom  2       EATOM= -147.1560
 kinetic energy error for atom=    0.0854 (will be added to EATOM!!)
  PAW_PBE H 15Jun2001                   :
 energy of atom  3       EATOM=  -12.4884
 kinetic energy error for atom=    0.0203 (will be added to EATOM!!)
  PAW_PBE Ir 06Sep2000                  :
 energy of atom  4       EATOM= -560.1833
 kinetic energy error for atom=    0.0056 (will be added to EATOM!!)
  PAW_PBE Pt 04Feb2005                  :
 energy of atom  5       EATOM= -729.1176
 kinetic energy error for atom=    0.0144 (will be added to EATOM!!)
 
 
 POSCAR: Au  C  H Ir Pt                          
  positions in cartesian coordinates
  No initial velocities read in
 exchange correlation table for  LEXCH =        8
   RHO(1)=    0.500       N(1)  =     2000
   RHO(2)=  100.500       N(2)  =     4000
 


--------------------------------------------------------------------------------------------------------


 ion  position               nearest neighbor table
   1  0.839  0.333  0.540-  20 2.78  21 2.78  13 2.78  13 2.78  21 2.78  20 2.78  17 2.79  14 2.79
                            16 2.80  11 2.82   8 2.82   9 2.83
   2  0.003  0.044  0.713-   6 1.10   4 1.10   5 1.10   3 1.11
   3  0.021  0.155  0.684-   2 1.11
   4  0.868  0.204  0.736-   2 1.10
   5  0.908  0.919  0.703-   2 1.10
   6  0.212  0.909  0.726-   2 1.10
   7  0.501  0.001  0.391-  18 2.78  19 2.78  12 2.78  12 2.78  19 2.78  18 2.78  17 2.81  16 2.82
                            14 2.83
   8  0.507  0.498  0.616-   9 2.77  11 2.78  10 2.78  10 2.78  11 2.78   9 2.78  13 2.82   1 2.82
                            20 2.82
   9  0.008  0.499  0.616-   8 2.77  11 2.77  10 2.78  10 2.78  11 2.78   8 2.78  13 2.81  21 2.82
                             1 2.83
  10  0.508  0.998  0.616-  11 2.78   9 2.78   8 2.78   8 2.78   9 2.78  11 2.78  21 2.82  13 2.82
                            20 2.82
  11  0.008  0.998  0.615-   9 2.77   8 2.78  10 2.78  10 2.78   8 2.78   9 2.78  20 2.80  21 2.81
                             1 2.82
  12  0.001  0.002  0.391-  19 2.78   7 2.78  18 2.78  18 2.78   7 2.78  19 2.78  16 2.82  15 2.82
                            17 2.83
  13  0.339  0.333  0.541-  20 2.78  21 2.78   1 2.78   1 2.78  21 2.78  20 2.78  16 2.79  17 2.80
                            15 2.80   9 2.81   8 2.82  10 2.82
  14  0.670  0.668  0.466-  16 2.78  17 2.78  15 2.78  15 2.78  17 2.78  16 2.78  20 2.78   1 2.79
                            21 2.79  19 2.82   7 2.83  18 2.83
  15  0.170  0.667  0.466-  16 2.78  14 2.78  17 2.78  17 2.78  14 2.78  16 2.78  21 2.79  20 2.80
                            13 2.80  18 2.81  12 2.82  19 2.82
  16  0.670  0.168  0.466-  15 2.78  14 2.78  17 2.78  17 2.78  14 2.78  15 2.78  13 2.79   1 2.80
                            21 2.80  12 2.82  18 2.82   7 2.82
  17  0.170  0.167  0.466-  14 2.78  15 2.78  16 2.78  16 2.78  15 2.78  14 2.78   1 2.79  20 2.80
                            13 2.80   7 2.81  19 2.82  12 2.83
  18  0.502  0.502  0.391-  19 2.78   7 2.78  12 2.78  12 2.78   7 2.78  19 2.78  15 2.81  16 2.82
                            14 2.83
  19  0.001  0.502  0.391-  18 2.78   7 2.78  12 2.78  12 2.78   7 2.78  18 2.78  14 2.82  17 2.82
                            15 2.82
  20  0.339  0.833  0.540-  13 2.78  21 2.78   1 2.78   1 2.78  21 2.78  13 2.78  14 2.78  17 2.80
                            15 2.80  11 2.80   8 2.82  10 2.82
  21  0.839  0.833  0.540-  20 2.78  13 2.78   1 2.78   1 2.78  13 2.78  20 2.78  15 2.79  14 2.79
                            16 2.80  11 2.81  10 2.82   9 2.82
 
  LATTYP: Found a hexagonal cell.
 ALAT       =     5.5578593001
 C/A-ratio  =     5.5429542221
  
  Lattice vectors:
  
 A1 = (   2.7789296501,  -4.8132473446,   0.0000000000)
 A2 = (  -5.5578593001,   0.0000000000,   0.0000000000)
 A3 = (   0.0000000000,   0.0000000000, -30.8069596737)


Analysis of symmetry for initial positions (statically):
=====================================================================
 Subroutine PRICEL returns:
 Original cell was already a primitive cell.
 

 Routine SETGRP: Setting up the symmetry group for a 
 hexagonal supercell.


 Subroutine GETGRP returns: Found  1 space group operations
 (whereof  1 operations were pure point group operations)
 out of a pool of 24 trial point group operations.


The static configuration has the point symmetry C_1 .


Analysis of symmetry for dynamics (positions and initial velocities):
=====================================================================
 Subroutine PRICEL returns:
 Original cell was already a primitive cell.
 

 Routine SETGRP: Setting up the symmetry group for a 
 hexagonal supercell.


 Subroutine GETGRP returns: Found  1 space group operations
 (whereof  1 operations were pure point group operations)
 out of a pool of 24 trial point group operations.


The dynamic configuration has the point symmetry C_1 .


 Subroutine INISYM returns: Found  1 space group operations
 (whereof  1 operations are pure point group operations),
 and found     1 'primitive' translations

 
 
 KPOINTS: 0.7.Ir1.Au8                             

Automatic generation of k-mesh.
Space group operators:
 irot       det(A)        alpha          n_x          n_y          n_z        tau_x        tau_y        tau_z
    1     1.000000     0.000001     1.000000     0.000000     0.000000     0.000000     0.000000     0.000000
 
 Subroutine IBZKPT returns following result:
 ===========================================
 
 Found     96 irreducible k-points:
 
 Following reciprocal coordinates:
            Coordinates               Weight
  0.062500  0.062500  0.000000     16.000000
  0.000000  0.062500  0.000000     16.000000
 -0.062500  0.000000  0.000000     16.000000
  0.187500  0.062500  0.000000     16.000000
  0.125000  0.187500  0.000000     16.000000
 -0.062500  0.125000  0.000000     16.000000
  0.125000 -0.062500  0.000000     16.000000
 -0.062500 -0.187500  0.000000     16.000000
 -0.187500 -0.125000  0.000000     16.000000
  0.312500  0.062500  0.000000     16.000000
  0.250000  0.312500  0.000000     16.000000
 -0.062500  0.250000  0.000000     16.000000
  0.250000 -0.062500  0.000000     16.000000
 -0.062500 -0.312500  0.000000     16.000000
 -0.312500 -0.250000  0.000000     16.000000
  0.437500  0.062500  0.000000     16.000000
  0.375000  0.437500  0.000000     16.000000
 -0.062500  0.375000  0.000000     16.000000
  0.375000 -0.062500  0.000000     16.000000
 -0.062500 -0.437500  0.000000     16.000000
 -0.437500 -0.375000  0.000000     16.000000
 -0.437500  0.062500  0.000000     16.000000
  0.500000 -0.437500  0.000000     16.000000
 -0.062500  0.500000  0.000000     16.000000
  0.500000 -0.062500  0.000000     16.000000
 -0.062500  0.437500  0.000000     16.000000
  0.437500  0.500000  0.000000     16.000000
 -0.312500  0.062500  0.000000     16.000000
 -0.375000 -0.312500  0.000000     16.000000
 -0.062500 -0.375000  0.000000     16.000000
 -0.375000 -0.062500  0.000000     16.000000
 -0.062500  0.312500  0.000000     16.000000
  0.312500  0.375000  0.000000     16.000000
 -0.187500  0.062500  0.000000     16.000000
 -0.250000 -0.187500  0.000000     16.000000
 -0.062500 -0.250000  0.000000     16.000000
 -0.250000 -0.062500  0.000000     16.000000
 -0.062500  0.187500  0.000000     16.000000
  0.187500  0.250000  0.000000     16.000000
 -0.062500  0.062500  0.000000     16.000000
 -0.125000 -0.062500  0.000000     16.000000
 -0.062500 -0.125000  0.000000     16.000000
  0.187500  0.187500  0.000000     16.000000
  0.000000  0.187500  0.000000     16.000000
 -0.187500  0.000000  0.000000     16.000000
  0.312500  0.187500  0.000000     16.000000
  0.125000  0.312500  0.000000     16.000000
 -0.187500  0.125000  0.000000     16.000000
  0.125000 -0.187500  0.000000     16.000000
 -0.187500 -0.312500  0.000000     16.000000
 -0.312500 -0.125000  0.000000     16.000000
  0.437500  0.187500  0.000000     16.000000
  0.250000  0.437500  0.000000     16.000000
 -0.187500  0.250000  0.000000     16.000000
  0.250000 -0.187500  0.000000     16.000000
 -0.187500 -0.437500  0.000000     16.000000
 -0.437500 -0.250000  0.000000     16.000000
 -0.437500  0.187500  0.000000     16.000000
  0.375000 -0.437500  0.000000     16.000000
 -0.187500  0.375000  0.000000     16.000000
  0.375000 -0.187500  0.000000     16.000000
 -0.187500  0.437500  0.000000     16.000000
  0.437500 -0.375000  0.000000     16.000000
 -0.312500  0.187500  0.000000     16.000000
  0.500000 -0.312500  0.000000     16.000000
 -0.187500  0.500000  0.000000     16.000000
  0.500000 -0.187500  0.000000     16.000000
 -0.187500  0.312500  0.000000     16.000000
  0.312500  0.500000  0.000000     16.000000
 -0.187500  0.187500  0.000000     16.000000
 -0.375000 -0.187500  0.000000     16.000000
 -0.187500 -0.375000  0.000000     16.000000
  0.312500  0.312500  0.000000     16.000000
  0.000000  0.312500  0.000000     16.000000
 -0.312500  0.000000  0.000000     16.000000
  0.437500  0.312500  0.000000     16.000000
  0.125000  0.437500  0.000000     16.000000
 -0.312500  0.125000  0.000000     16.000000
  0.125000 -0.312500  0.000000     16.000000
 -0.312500 -0.437500  0.000000     16.000000
 -0.437500 -0.125000  0.000000     16.000000
 -0.437500  0.312500  0.000000     16.000000
  0.250000 -0.437500  0.000000     16.000000
 -0.312500  0.250000  0.000000     16.000000
  0.250000 -0.312500  0.000000     16.000000
 -0.312500  0.437500  0.000000     16.000000
  0.437500 -0.250000  0.000000     16.000000
 -0.312500  0.312500  0.000000     16.000000
  0.375000 -0.312500  0.000000     16.000000
 -0.312500  0.375000  0.000000     16.000000
  0.437500  0.437500  0.000000     16.000000
  0.000000  0.437500  0.000000     16.000000
 -0.437500 -0.000000  0.000000     16.000000
 -0.437500  0.437500  0.000000     16.000000
  0.125000 -0.437500  0.000000     16.000000
 -0.437500  0.125000  0.000000     16.000000
 
 Following cartesian coordinates:
            Coordinates               Weight
  0.011245  0.006492  0.000000     16.000000
  0.000000  0.012985  0.000000     16.000000
 -0.011245  0.006492  0.000000     16.000000
  0.033736 -0.006492  0.000000     16.000000
  0.022491  0.025970  0.000000     16.000000
 -0.011245  0.032462  0.000000     16.000000
  0.022491 -0.025970  0.000000     16.000000
 -0.011245 -0.032462  0.000000     16.000000
 -0.033736 -0.006492  0.000000     16.000000
  0.056227 -0.019477  0.000000     16.000000
  0.044981  0.038955  0.000000     16.000000
 -0.011245  0.058432  0.000000     16.000000
  0.044981 -0.038955  0.000000     16.000000
 -0.011245 -0.058432  0.000000     16.000000
 -0.056227 -0.019477  0.000000     16.000000
  0.078717 -0.032462  0.000000     16.000000
  0.067472  0.051940  0.000000     16.000000
 -0.011245  0.084402  0.000000     16.000000
  0.067472 -0.051940  0.000000     16.000000
 -0.011245 -0.084402  0.000000     16.000000
 -0.078717 -0.032462  0.000000     16.000000
 -0.078717  0.058432  0.000000     16.000000
  0.089963 -0.142835  0.000000     16.000000
 -0.011245  0.110372  0.000000     16.000000
  0.089963 -0.064925  0.000000     16.000000
 -0.011245  0.097387  0.000000     16.000000
  0.078717  0.058432  0.000000     16.000000
 -0.056227  0.045447  0.000000     16.000000
 -0.067472 -0.025970  0.000000     16.000000
 -0.011245 -0.071417  0.000000     16.000000
 -0.067472  0.025970  0.000000     16.000000
 -0.011245  0.071417  0.000000     16.000000
  0.056227  0.045447  0.000000     16.000000
 -0.033736  0.032462  0.000000     16.000000
 -0.044981 -0.012985  0.000000     16.000000
 -0.011245 -0.045447  0.000000     16.000000
 -0.044981  0.012985  0.000000     16.000000
 -0.011245  0.045447  0.000000     16.000000
  0.033736  0.032462  0.000000     16.000000
 -0.011245  0.019477  0.000000     16.000000
 -0.022491  0.000000  0.000000     16.000000
 -0.011245 -0.019477  0.000000     16.000000
  0.033736  0.019477  0.000000     16.000000
  0.000000  0.038955  0.000000     16.000000
 -0.033736  0.019477  0.000000     16.000000
  0.056227  0.006492  0.000000     16.000000
  0.022491  0.051940  0.000000     16.000000
 -0.033736  0.045447  0.000000     16.000000
  0.022491 -0.051940  0.000000     16.000000
 -0.033736 -0.045447  0.000000     16.000000
 -0.056227  0.006492  0.000000     16.000000
  0.078717 -0.006492  0.000000     16.000000
  0.044981  0.064925  0.000000     16.000000
 -0.033736  0.071417  0.000000     16.000000
  0.044981 -0.064925  0.000000     16.000000
 -0.033736 -0.071417  0.000000     16.000000
 -0.078717 -0.006492  0.000000     16.000000
 -0.078717  0.084402  0.000000     16.000000
  0.067472 -0.129850  0.000000     16.000000
 -0.033736  0.097387  0.000000     16.000000
  0.067472 -0.077910  0.000000     16.000000
 -0.033736  0.110372  0.000000     16.000000
  0.078717 -0.123357  0.000000     16.000000
 -0.056227  0.071417  0.000000     16.000000
  0.089963 -0.116865  0.000000     16.000000
 -0.033736  0.123357  0.000000     16.000000
  0.089963 -0.090895  0.000000     16.000000
 -0.033736  0.084402  0.000000     16.000000
  0.056227  0.071417  0.000000     16.000000
 -0.033736  0.058432  0.000000     16.000000
 -0.067472  0.000000  0.000000     16.000000
 -0.033736 -0.058432  0.000000     16.000000
  0.056227  0.032462  0.000000     16.000000
  0.000000  0.064925  0.000000     16.000000
 -0.056227  0.032462  0.000000     16.000000
  0.078717  0.019477  0.000000     16.000000
  0.022491  0.077910  0.000000     16.000000
 -0.056227  0.058432  0.000000     16.000000
  0.022491 -0.077910  0.000000     16.000000
 -0.056227 -0.058432  0.000000     16.000000
 -0.078717  0.019477  0.000000     16.000000
 -0.078717  0.110372  0.000000     16.000000
  0.044981 -0.116865  0.000000     16.000000
 -0.056227  0.084402  0.000000     16.000000
  0.044981 -0.090895  0.000000     16.000000
 -0.056227  0.123357  0.000000     16.000000
  0.078717 -0.097387  0.000000     16.000000
 -0.056227  0.097387  0.000000     16.000000
  0.067472 -0.103880  0.000000     16.000000
 -0.056227  0.110372  0.000000     16.000000
  0.078717  0.045447  0.000000     16.000000
  0.000000  0.090895  0.000000     16.000000
 -0.078717  0.045447  0.000000     16.000000
 -0.078717  0.136342  0.000000     16.000000
  0.022491 -0.103880  0.000000     16.000000
 -0.078717  0.071417  0.000000     16.000000
 


--------------------------------------------------------------------------------------------------------




 Dimension of arrays:
   k-points           NKPTS =     96   k-points in BZ     NKDIM =     96   number of bands    NBANDS=    100
   number of dos      NEDOS =    301   number of ions     NIONS =     21
   non local maximal  LDIM  =      6   non local SUM 2l+1 LMDIM =     18
   total plane-waves  NPLWV = 112896
   max r-space proj   IRMAX =   2252   max aug-charges    IRDMAX=  10104
   dimension x,y,z NGX =    28 NGY =   28 NGZ =  144
   dimension x,y,z NGXF=    56 NGYF=   56 NGZF=  288
   support grid    NGXF=    56 NGYF=   56 NGZF=  288
   ions per type =               1   1   4   1  14
   NGX,Y,Z   is equivalent  to a cutoff of   8.38,  8.38,  7.77 a.u.
   NGXF,Y,Z  is equivalent  to a cutoff of  16.75, 16.75, 15.54 a.u.

 SYSTEM =  0.7.Ir1.Au8                             
 POSCAR =  Au  C  H Ir Pt                          

 Startparameter for this run:
   NWRITE =      2    write-flag & timer
   PREC   = normal    normal or accurate (medium, high low for compatibility)
   ISTART =      0    job   : 0-new  1-cont  2-samecut
   ICHARG =      2    charge: 1-file 2-atom 10-const
   ISPIN  =      1    spin polarized calculation?
   LNONCOLLINEAR =      F non collinear calculations
   LSORBIT =      F    spin-orbit coupling
   INIWAV =      1    electr: 0-lowe 1-rand  2-diag
   LASPH  =      F    aspherical Exc in radial PAW
   METAGGA=      F    non-selfconsistent MetaGGA calc.

 Electronic Relaxation 1
   ENCUT  =  350.0 eV  25.72 Ry    5.07 a.u.   8.48  8.48 46.99*2*pi/ulx,y,z
   ENINI  =  350.0     initial cutoff
   ENAUG  =  644.9 eV  augmentation charge cutoff
   NELM   =   1000;   NELMIN=  5; NELMDL= -5     # of ELM steps 
   EDIFF  = 0.1E-04   stopping-criterion for ELM
   LREAL  =      T    real-space projection
   NLSPLINE    = F    spline interpolate recip. space projectors
   LCOMPAT=      F    compatible to vasp.4.4
   GGA_COMPAT  = T    GGA compatible to vasp.4.4-vasp.4.6
   LMAXPAW     = -100 max onsite density
   LMAXMIX     =    2 max onsite mixed and CHGCAR
   VOSKOWN=      0    Vosko Wilk Nusair interpolation
   ROPT   =   -0.00050  -0.00050  -0.00050  -0.00050
   ROPT   =   -0.00050
 Ionic relaxation
   EDIFFG = 0.1E-03   stopping-criterion for IOM
   NSW    =      0    number of steps for IOM
   NBLOCK =      1;   KBLOCK =      1    inner block; outer block 
   IBRION =     -1    ionic relax: 0-MD 1-quasi-New 2-CG
   NFREE  =      0    steps in history (QN), initial steepest desc. (CG)
   ISIF   =      2    stress and relaxation
   IWAVPR =     10    prediction:  0-non 1-charg 2-wave 3-comb
   ISYM   =      2    0-nonsym 1-usesym 2-fastsym
   LCORR  =      T    Harris-Foulkes like correction to forces

   POTIM  = 0.5000    time-step for ionic-motion
   TEIN   =    0.0    initial temperature
   TEBEG  =    0.0;   TEEND  =   0.0 temperature during run
   SMASS  =  -3.00    Nose mass-parameter (am)
   estimated Nose-frequenzy (Omega)   =  0.10E-29 period in steps =****** mass=  -0.706E-27a.u.
   SCALEE = 1.0000    scale energy and forces
   NPACO  =    256;   APACO  = 16.0  distance and # of slots for P.C.
   PSTRESS=    0.0 pullay stress

  Mass of Ions in am
   POMASS = 196.97 12.01  1.00192.22195.08
  Ionic Valenz
   ZVAL   =  11.00  4.00  1.00  9.00 10.00
  Atomic Wigner-Seitz radii
   RWIGS  =  -1.00 -1.00 -1.00 -1.00 -1.00
  virtual crystal weights 
   VCA    =   1.00  1.00  1.00  1.00  1.00
   NELECT =     168.0000    total number of electrons
   NUPDOWN=      -1.0000    fix difference up-down

 DOS related values:
   EMIN   =  10.00;   EMAX   =-10.00  energy-range for DOS
   EFERMI =   0.00
   ISMEAR =     1;   SIGMA  =   0.20  broadening in eV -4-tet -1-fermi 0-gaus

 Electronic relaxation 2 (details)
   IALGO  =     38    algorithm
   LDIAG  =      T    sub-space diagonalisation (order eigenvalues)
   LSUBROT=      F    optimize rotation matrix (better conditioning)
   TURBO    =      0    0=normal 1=particle mesh
   IRESTART =      0    0=no restart 2=restart with 2 vectors
   NREBOOT  =      0    no. of reboots
   NMIN     =      0    reboot dimension
   EREF     =   0.00    reference energy to select bands
   IMIX   =      4    mixing-type and parameters
     AMIX     =   0.40;   BMIX     =  1.00
     AMIX_MAG =   1.60;   BMIX_MAG =  1.00
     AMIN     =   0.10
     WC   =   100.;   INIMIX=   1;  MIXPRE=   1;  MAXMIX= -45

 Intra band minimization:
   WEIMIN = 0.0000     energy-eigenvalue tresh-hold
   EBREAK =  0.25E-07  absolut break condition
   DEPER  =   0.30     relativ break condition  

   TIME   =   0.40     timestep for ELM

  volume/ion in A,a.u.               =      39.24       264.83
  Fermi-wavevector in a.u.,A,eV,Ry     =   0.963488  1.820729 12.630418  0.928310
  Thomas-Fermi vector in A             =   2.093038
 
 Write flags
   LWAVE        =      F    write WAVECAR
   LDOWNSAMPLE  =      F    k-point downsampling of WAVECAR
   LCHARG       =      F    write CHGCAR
   LVTOT        =      F    write LOCPOT, total local potential
   LVHAR        =      F    write LOCPOT, Hartree potential only
   LELF         =      F    write electronic localiz. function (ELF)
   LORBIT       =      0    0 simple, 1 ext, 2 COOP (PROOUT), +10 PAW based schemes


 Dipole corrections
   LMONO  =      F    monopole corrections only (constant potential shift)
   LDIPOL =      F    correct potential (dipole corrections)
   IDIPOL =      3    1-x, 2-y, 3-z, 4-all directions 
   EPSILON=  1.0000000 bulk dielectric constant

 Exchange correlation treatment:
   GGA     =    --    GGA type
   LEXCH   =     8    internal setting for exchange type
   VOSKOWN=      0    Vosko Wilk Nusair interpolation
   LHFCALC =     F    Hartree Fock is set to
   LHFONE  =     F    Hartree Fock one center treatment
   AEXX    =    0.0000 exact exchange contribution

 Linear response parameters
   LEPSILON=     F    determine dielectric tensor
   LRPA    =     F    only Hartree local field effects (RPA)
   LNABLA  =     F    use nabla operator in PAW spheres
   LVEL    =     F    velocity operator in full k-point grid
   LINTERFAST=   F  fast interpolation
   KINTER  =     0    interpolate to denser k-point grid
   CSHIFT  =0.1000    complex shift for real part using Kramers Kronig
   OMEGAMAX=  -1.0    maximum frequency
   DEG_THRESHOLD= 0.2000000E-02 threshold for treating states as degnerate
   RTIME   =   -0.100 relaxation time in fs
  (WPLASMAI=    0.000 imaginary part of plasma frequency in eV, 0.658/RTIME)
   DFIELD  = 0.0000000 0.0000000 0.0000000 field for delta impulse in time
 
 Orbital magnetization related:
   ORBITALMAG=     F  switch on orbital magnetization
   LCHIMAG   =     F  perturbation theory with respect to B field
   DQ        =  0.001000  dq finite difference perturbation B field
   LLRAUG    =     F  two centre corrections for induced B field



--------------------------------------------------------------------------------------------------------


 Static calculation
 charge density and potential will be updated during run
 non-spin polarized calculation
 Variant of blocked Davidson
 Davidson routine will perform the subspace rotation
 perform sub-space diagonalisation
    after iterative eigenvector-optimisation
 modified Broyden-mixing scheme, WC =      100.0
 initial mixing is a Kerker type mixing with AMIX =  0.4000 and BMIX =      1.0000
 Hartree-type preconditioning will be used
 using additional bands           16
 real space projection scheme for non local part
 use partial core corrections
 calculate Harris-corrections to forces 
   (improved forces if not selfconsistent)
 use gradient corrections 
 use of overlap-Matrix (Vanderbilt PP)
 Methfessel and Paxton  Order N= 1 SIGMA  =   0.20


--------------------------------------------------------------------------------------------------------


  energy-cutoff  :      350.00
  volume of cell :      824.13
      direct lattice vectors                 reciprocal lattice vectors
     5.557859300  0.000000000  0.000000000     0.179925390 -0.103879972  0.000000000
     2.778929650  4.813247345  0.000000000     0.000000000  0.207759944  0.000000000
     0.000000000  0.000000000 30.806959674     0.000000000  0.000000000  0.032460198

  length of vectors
     5.557859300  5.557859300 30.806959674     0.207759944  0.207759944  0.032460198


 
 k-points in units of 2pi/SCALE and weight: 0.7.Ir1.Au8                             
   0.01124534  0.00649250  0.00000000       0.010
   0.00000000  0.01298500  0.00000000       0.010
  -0.01124534  0.00649250  0.00000000       0.010
   0.03373601 -0.00649250  0.00000000       0.010
   0.02249067  0.02596999  0.00000000       0.010
  -0.01124534  0.03246249  0.00000000       0.010
   0.02249067 -0.02596999  0.00000000       0.010
  -0.01124534 -0.03246249  0.00000000       0.010
  -0.03373601 -0.00649250  0.00000000       0.010
   0.05622668 -0.01947749  0.00000000       0.010
   0.04498135  0.03895499  0.00000000       0.010
  -0.01124534  0.05843248  0.00000000       0.010
   0.04498135 -0.03895499  0.00000000       0.010
  -0.01124534 -0.05843248  0.00000000       0.010
  -0.05622668 -0.01947749  0.00000000       0.010
   0.07871736 -0.03246249  0.00000000       0.010
   0.06747202  0.05193999  0.00000000       0.010
  -0.01124534  0.08440248  0.00000000       0.010
   0.06747202 -0.05193999  0.00000000       0.010
  -0.01124534 -0.08440248  0.00000000       0.010
  -0.07871736 -0.03246249  0.00000000       0.010
  -0.07871736  0.05843248  0.00000000       0.010
   0.08996269 -0.14283496  0.00000000       0.010
  -0.01124534  0.11037247  0.00000000       0.010
   0.08996269 -0.06492498  0.00000000       0.010
  -0.01124534  0.09738747  0.00000000       0.010
   0.07871736  0.05843248  0.00000000       0.010
  -0.05622668  0.04544749  0.00000000       0.010
  -0.06747202 -0.02596999  0.00000000       0.010
  -0.01124534 -0.07141748  0.00000000       0.010
  -0.06747202  0.02596999  0.00000000       0.010
  -0.01124534  0.07141748  0.00000000       0.010
   0.05622668  0.04544749  0.00000000       0.010
  -0.03373601  0.03246249  0.00000000       0.010
  -0.04498135 -0.01298500  0.00000000       0.010
  -0.01124534 -0.04544749  0.00000000       0.010
  -0.04498135  0.01298500  0.00000000       0.010
  -0.01124534  0.04544749  0.00000000       0.010
   0.03373601  0.03246249  0.00000000       0.010
  -0.01124534  0.01947749  0.00000000       0.010
  -0.02249067  0.00000000  0.00000000       0.010
  -0.01124534 -0.01947749  0.00000000       0.010
   0.03373601  0.01947749  0.00000000       0.010
   0.00000000  0.03895499  0.00000000       0.010
  -0.03373601  0.01947749  0.00000000       0.010
   0.05622668  0.00649250  0.00000000       0.010
   0.02249067  0.05193999  0.00000000       0.010
  -0.03373601  0.04544749  0.00000000       0.010
   0.02249067 -0.05193999  0.00000000       0.010
  -0.03373601 -0.04544749  0.00000000       0.010
  -0.05622668  0.00649250  0.00000000       0.010
   0.07871736 -0.00649250  0.00000000       0.010
   0.04498135  0.06492498  0.00000000       0.010
  -0.03373601  0.07141748  0.00000000       0.010
   0.04498135 -0.06492498  0.00000000       0.010
  -0.03373601 -0.07141748  0.00000000       0.010
  -0.07871736 -0.00649250  0.00000000       0.010
  -0.07871736  0.08440248  0.00000000       0.010
   0.06747202 -0.12984997  0.00000000       0.010
  -0.03373601  0.09738747  0.00000000       0.010
   0.06747202 -0.07790998  0.00000000       0.010
  -0.03373601  0.11037247  0.00000000       0.010
   0.07871736 -0.12335747  0.00000000       0.010
  -0.05622668  0.07141748  0.00000000       0.010
   0.08996269 -0.11686497  0.00000000       0.010
  -0.03373601  0.12335747  0.00000000       0.010
   0.08996269 -0.09089498  0.00000000       0.010
  -0.03373601  0.08440248  0.00000000       0.010
   0.05622668  0.07141748  0.00000000       0.010
  -0.03373601  0.05843248  0.00000000       0.010
  -0.06747202  0.00000000  0.00000000       0.010
  -0.03373601 -0.05843248  0.00000000       0.010
   0.05622668  0.03246249  0.00000000       0.010
   0.00000000  0.06492498  0.00000000       0.010
  -0.05622668  0.03246249  0.00000000       0.010
   0.07871736  0.01947749  0.00000000       0.010
   0.02249067  0.07790998  0.00000000       0.010
  -0.05622668  0.05843248  0.00000000       0.010
   0.02249067 -0.07790998  0.00000000       0.010
  -0.05622668 -0.05843248  0.00000000       0.010
  -0.07871736  0.01947749  0.00000000       0.010
  -0.07871736  0.11037247  0.00000000       0.010
   0.04498135 -0.11686497  0.00000000       0.010
  -0.05622668  0.08440248  0.00000000       0.010
   0.04498135 -0.09089498  0.00000000       0.010
  -0.05622668  0.12335747  0.00000000       0.010
   0.07871736 -0.09738747  0.00000000       0.010
  -0.05622668  0.09738747  0.00000000       0.010
   0.06747202 -0.10387997  0.00000000       0.010
  -0.05622668  0.11037247  0.00000000       0.010
   0.07871736  0.04544749  0.00000000       0.010
   0.00000000  0.09089498  0.00000000       0.010
  -0.07871736  0.04544749  0.00000000       0.010
  -0.07871736  0.13634246  0.00000000       0.010
   0.02249067 -0.10387997  0.00000000       0.010
  -0.07871736  0.07141748  0.00000000       0.010
 
 k-points in reciprocal lattice and weights: 0.7.Ir1.Au8                             
   0.06250000  0.06250000  0.00000000       0.010
   0.00000000  0.06250000  0.00000000       0.010
  -0.06250000  0.00000000  0.00000000       0.010
   0.18750000  0.06250000  0.00000000       0.010
   0.12500000  0.18750000  0.00000000       0.010
  -0.06250000  0.12500000  0.00000000       0.010
   0.12500000 -0.06250000  0.00000000       0.010
  -0.06250000 -0.18750000  0.00000000       0.010
  -0.18750000 -0.12500000  0.00000000       0.010
   0.31250000  0.06250000  0.00000000       0.010
   0.25000000  0.31250000  0.00000000       0.010
  -0.06250000  0.25000000  0.00000000       0.010
   0.25000000 -0.06250000  0.00000000       0.010
  -0.06250000 -0.31250000  0.00000000       0.010
  -0.31250000 -0.25000000  0.00000000       0.010
   0.43750000  0.06250000  0.00000000       0.010
   0.37500000  0.43750000  0.00000000       0.010
  -0.06250000  0.37500000  0.00000000       0.010
   0.37500000 -0.06250000  0.00000000       0.010
  -0.06250000 -0.43750000  0.00000000       0.010
  -0.43750000 -0.37500000  0.00000000       0.010
  -0.43750000  0.06250000  0.00000000       0.010
   0.50000000 -0.43750000  0.00000000       0.010
  -0.06250000  0.50000000  0.00000000       0.010
   0.50000000 -0.06250000  0.00000000       0.010
  -0.06250000  0.43750000  0.00000000       0.010
   0.43750000  0.50000000  0.00000000       0.010
  -0.31250000  0.06250000  0.00000000       0.010
  -0.37500000 -0.31250000  0.00000000       0.010
  -0.06250000 -0.37500000  0.00000000       0.010
  -0.37500000 -0.06250000  0.00000000       0.010
  -0.06250000  0.31250000  0.00000000       0.010
   0.31250000  0.37500000  0.00000000       0.010
  -0.18750000  0.06250000  0.00000000       0.010
  -0.25000000 -0.18750000  0.00000000       0.010
  -0.06250000 -0.25000000  0.00000000       0.010
  -0.25000000 -0.06250000  0.00000000       0.010
  -0.06250000  0.18750000  0.00000000       0.010
   0.18750000  0.25000000  0.00000000       0.010
  -0.06250000  0.06250000  0.00000000       0.010
  -0.12500000 -0.06250000  0.00000000       0.010
  -0.06250000 -0.12500000  0.00000000       0.010
   0.18750000  0.18750000  0.00000000       0.010
   0.00000000  0.18750000  0.00000000       0.010
  -0.18750000  0.00000000  0.00000000       0.010
   0.31250000  0.18750000  0.00000000       0.010
   0.12500000  0.31250000  0.00000000       0.010
  -0.18750000  0.12500000  0.00000000       0.010
   0.12500000 -0.18750000  0.00000000       0.010
  -0.18750000 -0.31250000  0.00000000       0.010
  -0.31250000 -0.12500000  0.00000000       0.010
   0.43750000  0.18750000  0.00000000       0.010
   0.25000000  0.43750000  0.00000000       0.010
  -0.18750000  0.25000000  0.00000000       0.010
   0.25000000 -0.18750000  0.00000000       0.010
  -0.18750000 -0.43750000  0.00000000       0.010
  -0.43750000 -0.25000000  0.00000000       0.010
  -0.43750000  0.18750000  0.00000000       0.010
   0.37500000 -0.43750000  0.00000000       0.010
  -0.18750000  0.37500000  0.00000000       0.010
   0.37500000 -0.18750000  0.00000000       0.010
  -0.18750000  0.43750000  0.00000000       0.010
   0.43750000 -0.37500000  0.00000000       0.010
  -0.31250000  0.18750000  0.00000000       0.010
   0.50000000 -0.31250000  0.00000000       0.010
  -0.18750000  0.50000000  0.00000000       0.010
   0.50000000 -0.18750000  0.00000000       0.010
  -0.18750000  0.31250000  0.00000000       0.010
   0.31250000  0.50000000  0.00000000       0.010
  -0.18750000  0.18750000  0.00000000       0.010
  -0.37500000 -0.18750000  0.00000000       0.010
  -0.18750000 -0.37500000  0.00000000       0.010
   0.31250000  0.31250000  0.00000000       0.010
   0.00000000  0.31250000  0.00000000       0.010
  -0.31250000  0.00000000  0.00000000       0.010
   0.43750000  0.31250000  0.00000000       0.010
   0.12500000  0.43750000  0.00000000       0.010
  -0.31250000  0.12500000  0.00000000       0.010
   0.12500000 -0.31250000  0.00000000       0.010
  -0.31250000 -0.43750000  0.00000000       0.010
  -0.43750000 -0.12500000  0.00000000       0.010
  -0.43750000  0.31250000  0.00000000       0.010
   0.25000000 -0.43750000  0.00000000       0.010
  -0.31250000  0.25000000  0.00000000       0.010
   0.25000000 -0.31250000  0.00000000       0.010
  -0.31250000  0.43750000  0.00000000       0.010
   0.43750000 -0.25000000  0.00000000       0.010
  -0.31250000  0.31250000  0.00000000       0.010
   0.37500000 -0.31250000  0.00000000       0.010
  -0.31250000  0.37500000  0.00000000       0.010
   0.43750000  0.43750000  0.00000000       0.010
   0.00000000  0.43750000  0.00000000       0.010
  -0.43750000 -0.00000000  0.00000000       0.010
  -0.43750000  0.43750000  0.00000000       0.010
   0.12500000 -0.43750000  0.00000000       0.010
  -0.43750000  0.12500000  0.00000000       0.010
 
 position of ions in fractional coordinates (direct lattice) 
   0.83907248  0.33321267  0.54042176
   0.00254665  0.04416127  0.71274958
   0.02133651  0.15527952  0.68404803
   0.86777890  0.20430924  0.73615209
   0.90794573  0.91919270  0.70323558
   0.21202594  0.90906622  0.72569317
   0.50147230  0.00126014  0.39091390
   0.50701195  0.49849552  0.61575606
   0.00789554  0.49869841  0.61579715
   0.50796649  0.99821536  0.61586534
   0.00758157  0.99808915  0.61535840
   0.00139793  0.00151485  0.39081218
   0.33932976  0.33268210  0.54067110
   0.67029070  0.66766201  0.46637624
   0.17038369  0.66736652  0.46616208
   0.67025482  0.16754085  0.46616399
   0.17025491  0.16748095  0.46620041
   0.50155227  0.50160900  0.39086836
   0.00116700  0.50154518  0.39090000
   0.33913947  0.83302472  0.54048193
   0.83933750  0.83309326  0.54049692
 
 position of ions in cartesian coordinates  (Angst):
   5.58942133  1.60383499 16.64875132
   0.13687497  0.21255909 21.95764743
   0.55009620  0.74739876 21.07344002
   5.39075403  0.98339089 22.67860789
   7.60060650  4.42430185 21.66455019
   3.70464140  4.37556059 22.35640023
   2.79061432  0.00606539 12.04286879
   4.20318505  2.39938226 18.96957196
   1.42973012  2.40035882 18.97083788
   5.59717655  4.80465742 18.97293869
   2.81575685  4.80404997 18.95732134
   0.01197915  0.00729137 12.03973510
   2.81044718  1.60128121 16.65643287
   5.58076717  3.21362242 14.36763389
   2.80153319  3.21220015 14.36103631
   4.19076618  0.80641554 14.36109526
   1.41167060  0.80612723 14.36221729
   4.18149309  2.41436820 12.04146585
   1.40024479  2.41406099 12.04244059
   4.19980653  4.00955401 16.65060495
   6.98002729  4.00988392 16.65106672
 


--------------------------------------------------------------------------------------------------------


 k-point  1 :   0.0625 0.0625 0.0000  plane waves:   12325
 k-point  2 :   0.0000 0.0625 0.0000  plane waves:   12325
 k-point  3 :  -0.0625 0.0000 0.0000  plane waves:   12325
 k-point  4 :   0.1875 0.0625 0.0000  plane waves:   12294
 k-point  5 :   0.1250 0.1875 0.0000  plane waves:   12294
 k-point  6 :  -0.0625 0.1250 0.0000  plane waves:   12294
 k-point  7 :   0.1250-0.0625 0.0000  plane waves:   12294
 k-point  8 :  -0.0625-0.1875 0.0000  plane waves:   12294
 k-point  9 :  -0.1875-0.1250 0.0000  plane waves:   12294
 k-point 10 :   0.3125 0.0625 0.0000  plane waves:   12263
 k-point 11 :   0.2500 0.3125 0.0000  plane waves:   12263
 k-point 12 :  -0.0625 0.2500 0.0000  plane waves:   12263
 k-point 13 :   0.2500-0.0625 0.0000  plane waves:   12263
 k-point 14 :  -0.0625-0.3125 0.0000  plane waves:   12263
 k-point 15 :  -0.3125-0.2500 0.0000  plane waves:   12263
 k-point 16 :   0.4375 0.0625 0.0000  plane waves:   12221
 k-point 17 :   0.3750 0.4375 0.0000  plane waves:   12221
 k-point 18 :  -0.0625 0.3750 0.0000  plane waves:   12221
 k-point 19 :   0.3750-0.0625 0.0000  plane waves:   12221
 k-point 20 :  -0.0625-0.4375 0.0000  plane waves:   12221
 k-point 21 :  -0.4375-0.3750 0.0000  plane waves:   12221
 k-point 22 :  -0.4375 0.0625 0.0000  plane waves:   12211
 k-point 23 :   0.5000-0.4375 0.0000  plane waves:   12211
 k-point 24 :  -0.0625 0.5000 0.0000  plane waves:   12211
 k-point 25 :   0.5000-0.0625 0.0000  plane waves:   12211
 k-point 26 :  -0.0625 0.4375 0.0000  plane waves:   12211
 k-point 27 :   0.4375 0.5000 0.0000  plane waves:   12211
 k-point 28 :  -0.3125 0.0625 0.0000  plane waves:   12242
 k-point 29 :  -0.3750-0.3125 0.0000  plane waves:   12242
 k-point 30 :  -0.0625-0.3750 0.0000  plane waves:   12242
 k-point 31 :  -0.3750-0.0625 0.0000  plane waves:   12242
 k-point 32 :  -0.0625 0.3125 0.0000  plane waves:   12242
 k-point 33 :   0.3125 0.3750 0.0000  plane waves:   12242
 k-point 34 :  -0.1875 0.0625 0.0000  plane waves:   12280
 k-point 35 :  -0.2500-0.1875 0.0000  plane waves:   12280
 k-point 36 :  -0.0625-0.2500 0.0000  plane waves:   12280
 k-point 37 :  -0.2500-0.0625 0.0000  plane waves:   12280
 k-point 38 :  -0.0625 0.1875 0.0000  plane waves:   12280
 k-point 39 :   0.1875 0.2500 0.0000  plane waves:   12280
 k-point 40 :  -0.0625 0.0625 0.0000  plane waves:   12329
 k-point 41 :  -0.1250-0.0625 0.0000  plane waves:   12329
 k-point 42 :  -0.0625-0.1250 0.0000  plane waves:   12329
 k-point 43 :   0.1875 0.1875 0.0000  plane waves:   12277
 k-point 44 :   0.0000 0.1875 0.0000  plane waves:   12277
 k-point 45 :  -0.1875 0.0000 0.0000  plane waves:   12277
 k-point 46 :   0.3125 0.1875 0.0000  plane waves:   12288
 k-point 47 :   0.1250 0.3125 0.0000  plane waves:   12288
 k-point 48 :  -0.1875 0.1250 0.0000  plane waves:   12288
 k-point 49 :   0.1250-0.1875 0.0000  plane waves:   12288
 k-point 50 :  -0.1875-0.3125 0.0000  plane waves:   12288
 k-point 51 :  -0.3125-0.1250 0.0000  plane waves:   12288
 k-point 52 :   0.4375 0.1875 0.0000  plane waves:   12234
 k-point 53 :   0.2500 0.4375 0.0000  plane waves:   12234
 k-point 54 :  -0.1875 0.2500 0.0000  plane waves:   12234
 k-point 55 :   0.2500-0.1875 0.0000  plane waves:   12234
 k-point 56 :  -0.1875-0.4375 0.0000  plane waves:   12234
 k-point 57 :  -0.4375-0.2500 0.0000  plane waves:   12234
 k-point 58 :  -0.4375 0.1875 0.0000  plane waves:   12216
 k-point 59 :   0.3750-0.4375 0.0000  plane waves:   12216
 k-point 60 :  -0.1875 0.3750 0.0000  plane waves:   12216
 k-point 61 :   0.3750-0.1875 0.0000  plane waves:   12216
 k-point 62 :  -0.1875 0.4375 0.0000  plane waves:   12216
 k-point 63 :   0.4375-0.3750 0.0000  plane waves:   12216
 k-point 64 :  -0.3125 0.1875 0.0000  plane waves:   12215
 k-point 65 :   0.5000-0.3125 0.0000  plane waves:   12215
 k-point 66 :  -0.1875 0.5000 0.0000  plane waves:   12215
 k-point 67 :   0.5000-0.1875 0.0000  plane waves:   12215
 k-point 68 :  -0.1875 0.3125 0.0000  plane waves:   12215
 k-point 69 :   0.3125 0.5000 0.0000  plane waves:   12215
 k-point 70 :  -0.1875 0.1875 0.0000  plane waves:   12289
 k-point 71 :  -0.3750-0.1875 0.0000  plane waves:   12289
 k-point 72 :  -0.1875-0.3750 0.0000  plane waves:   12289
 k-point 73 :   0.3125 0.3125 0.0000  plane waves:   12275
 k-point 74 :   0.0000 0.3125 0.0000  plane waves:   12275
 k-point 75 :  -0.3125 0.0000 0.0000  plane waves:   12275
 k-point 76 :   0.4375 0.3125 0.0000  plane waves:   12239
 k-point 77 :   0.1250 0.4375 0.0000  plane waves:   12239
 k-point 78 :  -0.3125 0.1250 0.0000  plane waves:   12239
 k-point 79 :   0.1250-0.3125 0.0000  plane waves:   12239
 k-point 80 :  -0.3125-0.4375 0.0000  plane waves:   12239
 k-point 81 :  -0.4375-0.1250 0.0000  plane waves:   12239
 k-point 82 :  -0.4375 0.3125 0.0000  plane waves:   12235
 k-point 83 :   0.2500-0.4375 0.0000  plane waves:   12235
 k-point 84 :  -0.3125 0.2500 0.0000  plane waves:   12235
 k-point 85 :   0.2500-0.3125 0.0000  plane waves:   12235
 k-point 86 :  -0.3125 0.4375 0.0000  plane waves:   12235
 k-point 87 :   0.4375-0.2500 0.0000  plane waves:   12235
 k-point 88 :  -0.3125 0.3125 0.0000  plane waves:   12232
 k-point 89 :   0.3750-0.3125 0.0000  plane waves:   12232
 k-point 90 :  -0.3125 0.3750 0.0000  plane waves:   12232
 k-point 91 :   0.4375 0.4375 0.0000  plane waves:   12200
 k-point 92 :   0.0000 0.4375 0.0000  plane waves:   12200
 k-point 93 :  -0.4375-0.0000 0.0000  plane waves:   12200
 k-point 94 :  -0.4375 0.4375 0.0000  plane waves:   12214
 k-point 95 :   0.1250-0.4375 0.0000  plane waves:   12214
 k-point 96 :  -0.4375 0.1250 0.0000  plane waves:   12214

 maximum and minimum number of plane-waves per node :      3101     2992

 maximum number of plane-waves:     12329
 maximum index in each direction: 
   IXMAX=    8   IYMAX=    8   IZMAX=   46
   IXMIN=   -8   IYMIN=   -8   IZMIN=  -46


 real space projection operators:
  total allocation   :       5091.23 KBytes
  max/ min on nodes  :       1273.41       1272.21


 parallel 3D FFT for wavefunctions:
    minimum data exchange during FFTs selected (reduces bandwidth)
 parallel 3D FFT for charge:
    minimum data exchange during FFTs selected (reduces bandwidth)


 total amount of memory used by VASP MPI-rank0   164307. kBytes
=======================================================================

   base      :      30000. kBytes
   nonlr-proj:       2354. kBytes
   fftplans  :       2967. kBytes
   grid      :       6321. kBytes
   one-center:         93. kBytes
   wavefun   :     122572. kBytes
 
     INWAV:  cpu time    0.0000: real time    0.0000
 Broyden mixing: mesh for mixing (old mesh)
   NGX = 17   NGY = 17   NGZ = 93
  (NGX  = 56   NGY  = 56   NGZ  =288)
  gives a total of  26877 points

 initial charge density was supplied:
 charge density of overlapping atoms calculated
 number of electron     168.0000000 magnetization 
 keeping initial charge density in first step


--------------------------------------------------------------------------------------------------------


 Maximum index for non-local projection operator          537
 Maximum index for augmentation-charges          716 (set IRDMAX)


--------------------------------------------------------------------------------------------------------


 First call to EWALD:  gamma=   0.189
 Maximum number of real-space cells 5x 5x 1
 Maximum number of reciprocal cells 2x 2x 8

    FEWALD:  cpu time    0.0013: real time    0.0013


--------------------------------------- Iteration      1(   1)  ---------------------------------------


    POTLOK:  cpu time    0.0262: real time    0.0323
    SETDIJ:  cpu time    0.0035: real time    0.0035
     EDDAV:  cpu time   14.4988: real time   14.4996
       DOS:  cpu time    0.0076: real time    0.0076
    --------------------------------------------
      LOOP:  cpu time   14.5360: real time   14.5430

 eigenvalue-minimisations  : 19288
 total energy-change (2. order) : 0.1024963E+04  (-0.5827681E+04)
 number of electron     168.0000000 magnetization 
 augmentation part      168.0000000 magnetization 

 Free energy of the ion-electron system (eV)
  ---------------------------------------------------
  alpha Z        PSCENC =       324.87461712
  Ewald energy   TEWEN  =    100733.72948849
  -Hartree energ DENC   =   -113020.69877672
  -exchange      EXHF   =         0.00000000
  -V(xc)+E(xc)   XCENC  =        68.96802010
  PAW double counting   =     11288.27476651   -10829.50941267
  entropy T*S    EENTRO =         0.00294845
  eigenvalues    EBANDS =       568.68414981
  atomic energy  EATOM  =     11890.63736546
  Solvation  Ediel_sol  =         0.00000000
  ---------------------------------------------------
  free energy    TOTEN  =      1024.96316655 eV

  energy without entropy =     1024.96021810  energy(sigma->0) =     1024.96218373


--------------------------------------------------------------------------------------------------------




--------------------------------------- Iteration      1(   2)  ---------------------------------------


     EDDAV:  cpu time   17.0784: real time   17.0800
       DOS:  cpu time    0.0084: real time    0.0084
    --------------------------------------------
      LOOP:  cpu time   17.0868: real time   17.0884

 eigenvalue-minimisations  : 23824
 total energy-change (2. order) :-0.1053523E+04  (-0.9774409E+03)
 number of electron     168.0000000 magnetization 
 augmentation part      168.0000000 magnetization 

 Free energy of the ion-electron system (eV)
  ---------------------------------------------------
  alpha Z        PSCENC =       324.87461712
  Ewald energy   TEWEN  =    100733.72948849
  -Hartree energ DENC   =   -113020.69877672
  -exchange      EXHF   =         0.00000000
  -V(xc)+E(xc)   XCENC  =        68.96802010
  PAW double counting   =     11288.27476651   -10829.50941267
  entropy T*S    EENTRO =         0.00278557
  eigenvalues    EBANDS =      -484.83855325
  atomic energy  EATOM  =     11890.63736546
  Solvation  Ediel_sol  =         0.00000000
  ---------------------------------------------------
  free energy    TOTEN  =       -28.55969939 eV

  energy without entropy =      -28.56248495  energy(sigma->0) =      -28.56062791


--------------------------------------------------------------------------------------------------------




--------------------------------------- Iteration      1(   3)  ---------------------------------------


     EDDAV:  cpu time   16.5949: real time   16.5986
       DOS:  cpu time    0.0086: real time    0.0086
    --------------------------------------------
      LOOP:  cpu time   16.6035: real time   16.6072

 eigenvalue-minimisations  : 22944
 total energy-change (2. order) :-0.9219641E+02  (-0.8514228E+02)
 number of electron     168.0000000 magnetization 
 augmentation part      168.0000000 magnetization 

 Free energy of the ion-electron system (eV)
  ---------------------------------------------------
  alpha Z        PSCENC =       324.87461712
  Ewald energy   TEWEN  =    100733.72948849
  -Hartree energ DENC   =   -113020.69877672
  -exchange      EXHF   =         0.00000000
  -V(xc)+E(xc)   XCENC  =        68.96802010
  PAW double counting   =     11288.27476651   -10829.50941267
  entropy T*S    EENTRO =        -0.01962247
  eigenvalues    EBANDS =      -577.01255217
  atomic energy  EATOM  =     11890.63736546
  Solvation  Ediel_sol  =         0.00000000
  ---------------------------------------------------
  free energy    TOTEN  =      -120.75610635 eV

  energy without entropy =     -120.73648388  energy(sigma->0) =     -120.74956552


--------------------------------------------------------------------------------------------------------




--------------------------------------- Iteration      1(   4)  ---------------------------------------


     EDDAV:  cpu time   18.0359: real time   18.0372
       DOS:  cpu time    0.0087: real time    0.0087
    --------------------------------------------
      LOOP:  cpu time   18.0447: real time   18.0459

 eigenvalue-minimisations  : 25632
 total energy-change (2. order) :-0.4495521E+01  (-0.4272821E+01)
 number of electron     168.0000000 magnetization 
 augmentation part      168.0000000 magnetization 

 Free energy of the ion-electron system (eV)
  ---------------------------------------------------
  alpha Z        PSCENC =       324.87461712
  Ewald energy   TEWEN  =    100733.72948849
  -Hartree energ DENC   =   -113020.69877672
  -exchange      EXHF   =         0.00000000
  -V(xc)+E(xc)   XCENC  =        68.96802010
  PAW double counting   =     11288.27476651   -10829.50941267
  entropy T*S    EENTRO =        -0.02823347
  eigenvalues    EBANDS =      -581.49946179
  atomic energy  EATOM  =     11890.63736546
  Solvation  Ediel_sol  =         0.00000000
  ---------------------------------------------------
  free energy    TOTEN  =      -125.25162697 eV

  energy without entropy =     -125.22339350  energy(sigma->0) =     -125.24221581


--------------------------------------------------------------------------------------------------------




--------------------------------------- Iteration      1(   5)  ---------------------------------------


     EDDAV:  cpu time   18.8087: real time   18.8155
       DOS:  cpu time    0.0087: real time    0.0087
    CHARGE:  cpu time    0.7137: real time    0.7137
    MIXING:  cpu time    0.0011: real time    0.0011
    --------------------------------------------
      LOOP:  cpu time   19.5322: real time   19.5390

 eigenvalue-minimisations  : 26948
 total energy-change (2. order) :-0.1438583E+00  (-0.1425176E+00)
 number of electron     167.9999894 magnetization 
 augmentation part       47.1012439 magnetization 

 Broyden mixing:
  rms(total) = 0.42857E+01    rms(broyden)= 0.42856E+01
  rms(prec ) = 0.43299E+01
  weight for this iteration     100.00

 Free energy of the ion-electron system (eV)
  ---------------------------------------------------
  alpha Z        PSCENC =       324.87461712
  Ewald energy   TEWEN  =    100733.72948849
  -Hartree energ DENC   =   -113020.69877672
  -exchange      EXHF   =         0.00000000
  -V(xc)+E(xc)   XCENC  =        68.96802010
  PAW double counting   =     11288.27476651   -10829.50941267
  entropy T*S    EENTRO =        -0.02831572
  eigenvalues    EBANDS =      -581.64323785
  atomic energy  EATOM  =     11890.63736546
  Solvation  Ediel_sol  =         0.00000000
  ---------------------------------------------------
  free energy    TOTEN  =      -125.39548528 eV

  energy without entropy =     -125.36716956  energy(sigma->0) =     -125.38604671


--------------------------------------------------------------------------------------------------------




--------------------------------------- Iteration      1(   6)  ---------------------------------------


    POTLOK:  cpu time    0.0236: real time    0.0240
    SETDIJ:  cpu time    0.0035: real time    0.0035
     EDDAV:  cpu time   16.4786: real time   16.4802
       DOS:  cpu time    0.0102: real time    0.0102
    CHARGE:  cpu time    0.7147: real time    0.7147
    MIXING:  cpu time    0.0011: real time    0.0012
    --------------------------------------------
      LOOP:  cpu time   17.2317: real time   17.2337

 eigenvalue-minimisations  : 22808
 total energy-change (2. order) : 0.5065840E+01  (-0.3404503E+01)
 number of electron     167.9999890 magnetization 
 augmentation part       49.7580474 magnetization 

 Broyden mixing:
  rms(total) = 0.35968E+01    rms(broyden)= 0.35967E+01
  rms(prec ) = 0.39775E+01
  weight for this iteration     100.00

 eigenvalues of (default mixing * dielectric matrix)
  average eigenvalue GAMMA=   0.9071
  0.9071

 Free energy of the ion-electron system (eV)
  ---------------------------------------------------
  alpha Z        PSCENC =       324.87461712
  Ewald energy   TEWEN  =    100733.72948849
  -Hartree energ DENC   =   -112819.53180642
  -exchange      EXHF   =         0.00000000
  -V(xc)+E(xc)   XCENC  =        65.91827713
  PAW double counting   =     12557.74944667   -12122.55743900
  entropy T*S    EENTRO =         0.01497894
  eigenvalues    EBANDS =      -751.16457331
  atomic energy  EATOM  =     11890.63736546
  Solvation  Ediel_sol  =         0.00000000
  ---------------------------------------------------
  free energy    TOTEN  =      -120.32964492 eV

  energy without entropy =     -120.34462386  energy(sigma->0) =     -120.33463790


--------------------------------------------------------------------------------------------------------




--------------------------------------- Iteration      1(   7)  ---------------------------------------


    POTLOK:  cpu time    0.0227: real time    0.0239
    SETDIJ:  cpu time    0.0034: real time    0.0034
     EDDAV:  cpu time   20.2039: real time   20.2049
       DOS:  cpu time    0.0090: real time    0.0090
    CHARGE:  cpu time    0.7138: real time    0.7138
    MIXING:  cpu time    0.0012: real time    0.0012
    --------------------------------------------
      LOOP:  cpu time   20.9539: real time   20.9562

 eigenvalue-minimisations  : 29392
 total energy-change (2. order) :-0.5230062E+02  (-0.2355097E+02)
 number of electron     167.9999899 magnetization 
 augmentation part       47.9737993 magnetization 

 Broyden mixing:
  rms(total) = 0.58329E+01    rms(broyden)= 0.58328E+01
  rms(prec ) = 0.74454E+01
  weight for this iteration     100.00

 eigenvalues of (default mixing * dielectric matrix)
  average eigenvalue GAMMA=   0.8503
  1.5474  0.1532

 Free energy of the ion-electron system (eV)
  ---------------------------------------------------
  alpha Z        PSCENC =       324.87461712
  Ewald energy   TEWEN  =    100733.72948849
  -Hartree energ DENC   =   -112898.75585316
  -exchange      EXHF   =         0.00000000
  -V(xc)+E(xc)   XCENC  =        65.49984690
  PAW double counting   =     13139.95892488   -12710.97305544
  entropy T*S    EENTRO =        -0.01119011
  eigenvalues    EBANDS =      -717.59040943
  atomic energy  EATOM  =     11890.63736546
  Solvation  Ediel_sol  =         0.00000000
  ---------------------------------------------------
  free energy    TOTEN  =      -172.63026530 eV

  energy without entropy =     -172.61907519  energy(sigma->0) =     -172.62653526


--------------------------------------------------------------------------------------------------------




--------------------------------------- Iteration      1(   8)  ---------------------------------------


    POTLOK:  cpu time    0.0233: real time    0.0237
    SETDIJ:  cpu time    0.0035: real time    0.0035
     EDDAV:  cpu time   19.2110: real time   19.2144
       DOS:  cpu time    0.0096: real time    0.0096
    CHARGE:  cpu time    0.7131: real time    0.7132
    MIXING:  cpu time    0.0012: real time    0.0012
    --------------------------------------------
      LOOP:  cpu time   19.9617: real time   19.9657

 eigenvalue-minimisations  : 27576
 total energy-change (2. order) : 0.2668914E+02  (-0.9921534E+01)
 number of electron     167.9999885 magnetization 
 augmentation part       49.1890328 magnetization 

 Broyden mixing:
  rms(total) = 0.45335E+01    rms(broyden)= 0.45334E+01
  rms(prec ) = 0.50862E+01
  weight for this iteration     100.00

 eigenvalues of (default mixing * dielectric matrix)
  average eigenvalue GAMMA=   0.8218
  2.0357  0.2149  0.2149

 Free energy of the ion-electron system (eV)
  ---------------------------------------------------
  alpha Z        PSCENC =       324.87461712
  Ewald energy   TEWEN  =    100733.72948849
  -Hartree energ DENC   =   -112974.84494020
  -exchange      EXHF   =         0.00000000
  -V(xc)+E(xc)   XCENC  =        64.90032472
  PAW double counting   =     13965.10551983   -13545.51007535
  entropy T*S    EENTRO =        -0.00320462
  eigenvalues    EBANDS =      -604.83022029
  atomic energy  EATOM  =     11890.63736546
  Solvation  Ediel_sol  =         0.00000000
[...]
     21      -5.1794      2.00000
     22      -5.1389      2.00000
     23      -5.0826      2.00000
     24      -5.0465      2.00000
     25      -4.9729      2.00000
     26      -4.9402      2.00000
     27      -4.8153      2.00000
     28      -4.7736      2.00000
     29      -4.7499      2.00000
     30      -4.7052      2.00000
     31      -4.6567      2.00000
     32      -4.6141      2.00000
     33      -4.3651      2.00000
     34      -4.2465      2.00000
     35      -4.2075      2.00000
     36      -4.1580      2.00000
     37      -4.0912      2.00000
     38      -4.0628      2.00000
     39      -3.9270      2.00000
     40      -3.8929      2.00000
     41      -3.7515      2.00000
     42      -3.7259      2.00000
     43      -3.7026      2.00000
     44      -3.6592      2.00000
     45      -3.5830      2.00000
     46      -3.4250      2.00000
     47      -3.3787      2.00000
     48      -3.3533      2.00000
     49      -3.3436      2.00000
     50      -3.2964      2.00000
     51      -3.2402      2.00000
     52      -3.2219      2.00000
     53      -3.1784      2.00000
     54      -3.0638      2.00000
     55      -2.9908      2.00000
     56      -2.9149      2.00000
     57      -2.8328      2.00000
     58      -2.6314      2.00000
     59      -2.5617      2.00000
     60      -2.5241      2.00000
     61      -2.4175      2.00000
     62      -2.3723      2.00000
     63      -2.2905      2.00000
     64      -2.2308      2.00000
     65      -2.0839      2.00000
     66      -2.0373      2.00000
     67      -1.9574      2.00000
     68      -1.9050      2.00000
     69      -1.8076      2.00000
     70      -1.7455      2.00000
     71      -1.7048      2.00000
     72      -1.6140      2.00000
     73      -1.5241      2.00000
     74      -1.5137      2.00000
     75      -1.4514      2.00000
     76      -1.3739      2.00000
     77      -1.3560      2.00000
     78      -1.1875      2.00000
     79      -1.0142      2.00034
     80      -0.9707      2.00103
     81      -0.8129      2.02274
     82      -0.7085      2.06606
     83      -0.6276      2.04063
     84      -0.5209      1.65247
     85      -0.4843      1.39693
     86      -0.4659      1.25135
     87      -0.2904      0.06182
     88      -0.2371     -0.04896
     89      -0.0396     -0.01699
     90       0.0221     -0.00563
     91       0.5741     -0.00000
     92       0.9466     -0.00000
     93       1.8782     -0.00000
     94       1.9446     -0.00000
     95       2.0571     -0.00000
     96       2.6820     -0.00000
     97       3.5858     -0.00000
     98       3.8005     -0.00000
     99       4.3297     -0.00000
    100       4.4118     -0.00000

 k-point    96 :      -0.4375    0.1250    0.0000
  band No.  band energies     occupation 
      1     -12.6054      2.00000
      2      -8.0200      2.00000
      3      -7.9210      2.00000
      4      -6.9500      2.00000
      5      -6.9066      2.00000
      6      -6.5604      2.00000
      7      -6.3183      2.00000
      8      -6.2251      2.00000
      9      -6.0976      2.00000
     10      -6.0469      2.00000
     11      -5.9683      2.00000
     12      -5.9195      2.00000
     13      -5.8527      2.00000
     14      -5.8129      2.00000
     15      -5.6627      2.00000
     16      -5.5007      2.00000
     17      -5.4485      2.00000
     18      -5.4017      2.00000
     19      -5.3595      2.00000
     20      -5.3318      2.00000
     21      -5.1720      2.00000
     22      -5.1221      2.00000
     23      -5.1005      2.00000
     24      -5.0545      2.00000
     25      -5.0068      2.00000
     26      -4.9186      2.00000
     27      -4.8197      2.00000
     28      -4.7673      2.00000
     29      -4.7428      2.00000
     30      -4.7017      2.00000
     31      -4.6571      2.00000
     32      -4.6204      2.00000
     33      -4.3617      2.00000
     34      -4.2507      2.00000
     35      -4.2089      2.00000
     36      -4.1613      2.00000
     37      -4.1009      2.00000
     38      -4.0655      2.00000
     39      -3.9377      2.00000
     40      -3.9120      2.00000
     41      -3.7652      2.00000
     42      -3.7196      2.00000
     43      -3.6890      2.00000
     44      -3.6559      2.00000
     45      -3.5882      2.00000
     46      -3.4377      2.00000
     47      -3.3679      2.00000
     48      -3.3516      2.00000
     49      -3.3415      2.00000
     50      -3.2982      2.00000
     51      -3.2381      2.00000
     52      -3.2096      2.00000
     53      -3.1540      2.00000
     54      -3.0655      2.00000
     55      -2.9930      2.00000
     56      -2.9405      2.00000
     57      -2.8536      2.00000
     58      -2.6409      2.00000
     59      -2.5720      2.00000
     60      -2.5209      2.00000
     61      -2.4327      2.00000
     62      -2.3885      2.00000
     63      -2.2898      2.00000
     64      -2.2132      2.00000
     65      -2.0589      2.00000
     66      -2.0393      2.00000
     67      -1.9613      2.00000
     68      -1.9059      2.00000
     69      -1.8012      2.00000
     70      -1.7811      2.00000
     71      -1.6602      2.00000
     72      -1.6168      2.00000
     73      -1.5550      2.00000
     74      -1.4950      2.00000
     75      -1.4547      2.00000
     76      -1.3652      2.00000
     77      -1.3473      2.00000
     78      -1.1785      2.00000
     79      -1.0317      2.00021
     80      -0.9753      2.00092
     81      -0.8083      2.02431
     82      -0.7103      2.06546
     83      -0.6461      2.05932
     84      -0.5130      1.60210
     85      -0.5022      1.52883
     86      -0.4579      1.18526
     87      -0.2791      0.02853
     88      -0.2233     -0.06095
     89      -0.0914     -0.03517
     90       0.0901     -0.00127
     91       0.5746     -0.00000
     92       0.9498     -0.00000
     93       1.8558     -0.00000
     94       1.9570     -0.00000
     95       2.0822     -0.00000
     96       2.6832     -0.00000
     97       3.5765     -0.00000
     98       3.7978     -0.00000
     99       4.2981     -0.00000
    100       4.4344     -0.00000


--------------------------------------------------------------------------------------------------------


 soft charge-density along one line, spin component           1
         0         1         2         3         4         5         6         7         8         9
 total charge-density along one line
 
 pseudopotential strength for first ion, spin component:           1
 -7.982   0.001   0.000  -0.008   0.000  -8.130   0.001   0.000
  0.001  -7.971   0.001   0.001  -0.009   0.001  -8.119   0.001
  0.000   0.001  -7.985   0.001   0.001   0.000   0.001  -8.132
 -0.008   0.001   0.001  -7.972   0.001  -0.008   0.001   0.001
  0.000  -0.009   0.001   0.001  -7.982   0.000  -0.009   0.001
 -8.130   0.001   0.000  -0.008   0.000  -8.261   0.001   0.000
  0.001  -8.119   0.001   0.001  -0.009   0.001  -8.251   0.001
  0.000   0.001  -8.132   0.001   0.001   0.000   0.001  -8.264
 -0.008   0.001   0.001  -8.120   0.001  -0.008   0.001   0.001
  0.000  -0.009   0.001   0.001  -8.129   0.000  -0.009   0.001
 -0.000  -0.001  -0.001  -0.000   0.000  -0.000  -0.001  -0.001
 -0.000  -0.001  -0.001  -0.000   0.000  -0.000  -0.001  -0.001
  0.000  -0.002  -0.000   0.000  -0.000   0.000  -0.002  -0.000
  0.000  -0.000  -0.002   0.000  -0.000   0.000  -0.000  -0.002
 -0.000   0.000   0.000  -0.002   0.000  -0.000   0.000   0.000
  0.000  -0.003   0.000   0.000  -0.000   0.000  -0.002   0.000
  0.000  -0.000  -0.004   0.000  -0.000   0.000  -0.000  -0.004
 -0.000   0.000   0.000  -0.003   0.000  -0.000   0.000   0.000
 total augmentation occupancy for first ion, spin component:           1
  6.231  -0.000   0.013   0.128   0.006  -4.204   0.002  -0.009  -0.254  -0.005   0.005  -0.001   0.002  -0.001  -0.001  -0.000
 -0.000   6.105   0.049   0.013   0.166   0.002  -3.945  -0.036  -0.005  -0.289   0.021  -0.002  -0.007   0.001   0.001  -0.001
  0.013   0.049   6.304   0.013   0.030  -0.009  -0.036  -4.355  -0.006  -0.023   0.056  -0.025  -0.002   0.024   0.001   0.000
  0.128   0.013   0.013   6.093   0.001  -0.254  -0.005  -0.006  -3.931   0.001   0.008  -0.001   0.001   0.001  -0.005   0.000
  0.006   0.166   0.030   0.001   6.271  -0.005  -0.289  -0.023   0.001  -4.238   0.007   0.001  -0.005   0.000   0.001  -0.000
 -4.204   0.002  -0.009  -0.254  -0.005   4.092  -0.003   0.006   0.349   0.004  -0.005   0.001  -0.001   0.001  -0.002   0.000
  0.002  -3.945  -0.036  -0.005  -0.289  -0.003   3.723   0.026  -0.001   0.382  -0.018   0.002  -0.003  -0.001  -0.001   0.001
 -0.009  -0.036  -4.355  -0.006  -0.023   0.006   0.026   4.301   0.000   0.018  -0.065   0.026   0.001  -0.025  -0.000  -0.000
 -0.254  -0.005  -0.006  -3.931   0.001   0.349  -0.001   0.000   3.709  -0.002  -0.008   0.001  -0.001  -0.000  -0.004  -0.000
 -0.005  -0.289  -0.023   0.001  -4.238   0.004   0.382   0.018  -0.002   4.121  -0.007   0.000   0.001  -0.000  -0.000   0.000
  0.005   0.021   0.056   0.008   0.007  -0.005  -0.018  -0.065  -0.008  -0.007   3.042  -0.832  -0.001  -0.020   0.000   0.000
 -0.001  -0.002  -0.025  -0.001   0.001   0.001   0.002   0.026   0.001   0.000  -0.832   0.252   0.001   0.005   0.000  -0.000
  0.002  -0.007  -0.002   0.001  -0.005  -0.001  -0.003   0.001  -0.001   0.001  -0.001   0.001   0.250  -0.001  -0.000  -0.009
 -0.001   0.001   0.024   0.001   0.000   0.001  -0.001  -0.025  -0.000  -0.000  -0.020   0.005  -0.001   0.244  -0.000   0.000
 -0.001   0.001   0.001  -0.005   0.001  -0.002  -0.001  -0.000  -0.004  -0.000   0.000   0.000  -0.000  -0.000   0.249   0.000
 -0.000  -0.001   0.000   0.000  -0.000   0.000   0.001  -0.000  -0.000   0.000   0.000  -0.000  -0.009   0.000   0.000   0.000
  0.000  -0.000  -0.003  -0.000  -0.000  -0.000   0.000   0.001  -0.000   0.000   0.001  -0.000   0.000  -0.008   0.000  -0.000
 -0.000   0.000   0.000  -0.001  -0.000   0.000  -0.000  -0.000   0.001   0.000   0.000  -0.000   0.000   0.000  -0.008  -0.000


------------------------ aborting loop because EDIFF is reached ----------------------------------------



 DIPCOR: dipole corrections for dipol
 direction  3 min pos    19,
 dipolmoment           0.000000      0.000000     -0.165514 electrons x Angstroem
 Tr[quadrupol]      -945.374781

 energy correction for charged system         0.000000 eV
 dipol+quadrupol energy correction            0.003008 eV
 added-field ion interaction          0.000000 eV  (added to PSCEN)

 
  *************** adding dipol energy to TOTEN NOW **************** 
    CHARGE:  cpu time    0.7119: real time    0.7120
    FORLOC:  cpu time    0.0070: real time    0.0070
    FORNL :  cpu time    3.2587: real time    3.2589
    STRESS:  cpu time    9.8086: real time    9.8088
    FORCOR:  cpu time    0.0284: real time    0.0284
    FORHAR:  cpu time    0.0119: real time    0.0119
    MIXING:  cpu time    0.0037: real time    0.0037
    OFIELD:  cpu time    0.0000: real time    0.0000

  FORCE on cell =-STRESS in cart. coord.  units (eV):
  Direction    XX          YY          ZZ          XY          YZ          ZX
  --------------------------------------------------------------------------------------
  Alpha Z   324.87462   324.87462   324.87462
  Ewald  109627.36590109626.80434************    -1.67354     5.25579    -1.51009
  Hartree112097.29366112097.59181************    -0.30954     1.26450    -0.35124
  E(xc)    -737.30261  -737.31620  -741.72824    -0.01320     0.05444    -0.00440
  Local  ************************226879.84374     1.48065    -5.36314     1.34939
  n-local    44.47658    44.29006    26.13330    -0.23132    -0.08488    -0.27111
  augment   834.42289   834.69849   862.64146     0.23019    -0.29428     0.27308
  Kinetic  2383.90869  2384.21065  2456.24516     0.47108    -1.06899     0.32756
  Fock        0.00000     0.00000     0.00000     0.00000     0.00000     0.00000
  -------------------------------------------------------------------------------------
  Total     -10.96369   -10.95933     1.90475    -0.04567    -0.23655    -0.18681
  in kB     -21.31438   -21.30592     3.70301    -0.08879    -0.45988    -0.36317
  external pressure =      -12.97 kB  Pullay stress =        0.00 kB


 VOLUME and BASIS-vectors are now :
 -----------------------------------------------------------------------------
  energy-cutoff  :      350.00
  volume of cell :      824.13
      direct lattice vectors                 reciprocal lattice vectors
     5.557859300  0.000000000  0.000000000     0.179925390 -0.103879972  0.000000000
     2.778929650  4.813247345  0.000000000     0.000000000  0.207759944  0.000000000
     0.000000000  0.000000000 30.806959674     0.000000000  0.000000000  0.032460198

  length of vectors
     5.557859300  5.557859300 30.806959674     0.207759944  0.207759944  0.032460198


 FORCES acting on ions
    electron-ion (+dipol)            ewald-force                    non-local-force                 convergence-correction
 -----------------------------------------------------------------------------------------------
   0.102E+00 -.161E+01 -.822E+03   -.867E-01 0.163E+01 0.821E+03   -.149E-01 -.880E-02 0.314E+00   0.941E-05 0.560E-03 0.422E-01
   0.388E+00 0.904E+00 -.126E+04   -.482E+00 -.118E+01 0.126E+04   0.768E-01 0.276E+00 -.422E+00   -.177E-04 -.903E-04 -.523E-02
   -.188E+02 -.243E+02 -.300E+03   0.207E+02 0.269E+02 0.296E+03   -.198E+01 -.256E+01 0.392E+01   -.701E-04 -.171E-03 -.117E-02
   0.136E+02 -.343E+02 -.329E+03   -.152E+02 0.381E+02 0.333E+03   0.151E+01 -.383E+01 -.355E+01   0.706E-04 -.207E-03 -.123E-02
   0.391E+02 0.269E+02 -.310E+03   -.434E+02 -.299E+02 0.309E+03   0.434E+01 0.299E+01 0.145E+01   0.188E-03 0.161E-03 -.130E-02
   -.352E+02 0.291E+02 -.323E+03   0.391E+02 -.324E+02 0.325E+03   -.395E+01 0.326E+01 -.196E+01   -.184E-03 0.162E-03 -.129E-02
   -.197E+00 -.389E+00 0.266E+04   0.178E+00 0.378E+00 -.266E+04   0.198E-01 0.293E-02 -.475E-01   -.776E-04 -.247E-03 0.701E-02
   0.582E+01 -.472E+01 -.264E+04   -.605E+01 0.486E+01 0.264E+04   0.153E+00 -.741E-01 0.101E+01   -.773E-03 0.369E-03 0.747E-02
   -.617E+01 -.707E+01 -.264E+04   0.642E+01 0.727E+01 0.264E+04   -.177E+00 -.135E+00 0.994E+00   0.779E-03 0.276E-03 0.741E-02
   -.130E+01 0.170E+01 -.264E+04   0.139E+01 -.175E+01 0.263E+04   -.820E-01 0.589E-01 0.879E+00   -.986E-04 0.111E-03 0.717E-02
   0.280E+01 0.113E+02 -.259E+04   -.287E+01 -.117E+02 0.259E+04   0.807E-01 0.315E+00 0.212E+01   0.717E-04 -.806E-03 0.783E-02
   -.847E-01 0.455E+00 0.295E+04   0.651E-01 -.451E+00 -.295E+04   0.249E-01 0.504E-01 -.728E+00   0.958E-04 -.104E-02 0.733E-02
   -.416E-02 0.112E+00 -.752E+03   0.629E-02 -.157E+00 0.752E+03   -.464E-02 0.665E-01 0.307E+00   -.153E-04 0.664E-03 0.381E-01
   0.143E+00 -.110E+02 0.114E+04   -.147E+00 0.114E+02 -.114E+04   -.339E-02 -.121E+00 -.421E+00   -.166E-03 -.632E-03 0.364E-01
   -.875E-01 0.374E+00 0.114E+04   0.839E-01 -.382E+00 -.114E+04   -.173E-02 0.992E-02 -.370E+00   0.164E-03 -.279E-04 0.360E-01
   0.986E+01 0.532E+01 0.115E+04   -.102E+02 -.550E+01 -.115E+04   0.935E-01 0.353E-01 -.275E+00   0.518E-03 0.434E-03 0.362E-01
   -.992E+01 0.544E+01 0.115E+04   0.103E+02 -.563E+01 -.115E+04   -.105E+00 0.454E-01 -.273E+00   -.526E-03 0.241E-03 0.364E-01
   0.549E+00 0.822E-01 0.295E+04   -.561E+00 -.533E-01 -.295E+04   0.582E-01 -.497E-01 -.774E+00   -.663E-03 0.703E-03 0.763E-02
   -.851E+00 0.381E-02 0.295E+04   0.825E+00 0.177E-01 -.295E+04   -.129E-01 -.461E-01 -.756E+00   0.660E-03 0.596E-03 0.775E-02
   -.154E+01 0.692E+00 -.748E+03   0.156E+01 -.661E+00 0.748E+03   -.465E-01 -.338E-01 0.343E+00   -.147E-03 -.577E-03 0.376E-01
   0.170E+01 0.707E+00 -.748E+03   -.169E+01 -.677E+00 0.748E+03   0.138E-01 -.301E-01 0.368E+00   0.136E-03 -.592E-03 0.376E-01
 -----------------------------------------------------------------------------------------------
   -.124E-01 -.226E+00 -.247E+01   -.469E-13 0.178E-13 0.000E+00   -.592E-02 0.216E+00 0.212E+01   -.464E-04 -.109E-03 0.350E+00
 
 
 POSITION                                       TOTAL-FORCE (eV/Angst)
 -----------------------------------------------------------------------------------
      5.58942      1.60383     16.64875         0.001110      0.006818      0.027032
      0.13687      0.21256     21.95765        -0.015762      0.003131      0.105923
      0.55010      0.74740     21.07344        -0.003789     -0.021377      0.081565
      5.39075      0.98339     22.67861        -0.006378     -0.016046      0.119461
      7.60061      4.42430     21.66455         0.007782     -0.000017      0.068523
      3.70464      4.37556     22.35640        -0.002486     -0.004005      0.101474
      2.79061      0.00607     12.04287         0.002060     -0.008289      0.888896
      4.20319      2.39938     18.96957        -0.072529      0.061857      0.155410
      1.42973      2.40036     18.97084         0.079858      0.057359      0.145983
      5.59718      4.80466     18.97294         0.007110      0.013638     -0.072431
      2.81576      4.80405     18.95732         0.010192     -0.121382      0.126629
      0.01198      0.00729     12.03974         0.006280      0.053928     -0.102098
      2.81045      1.60128     16.65643        -0.001654      0.022937      0.013102
      5.58077      3.21362     14.36763        -0.006297      0.293785     -0.501422
      2.80153      3.21220     14.36104        -0.004264      0.002380      0.065717
      4.19077      0.80642     14.36110        -0.270950     -0.147052     -0.510192
      1.41167      0.80613     14.36222         0.267364     -0.152936     -0.531167
      4.18149      2.41437     12.04147         0.045957     -0.019634     -0.098944
      1.40024      2.41406     12.04244        -0.037702     -0.023495     -0.101773
      4.19981      4.00955     16.65060        -0.027093     -0.001966      0.011740
      6.98003      4.00988     16.65107         0.021191      0.000364      0.006573
 -----------------------------------------------------------------------------------
    total drift:                               -0.018357     -0.009951     -0.000679


--------------------------------------------------------------------------------------------------------



  FREE ENERGIE OF THE ION-ELECTRON SYSTEM (eV)
  ---------------------------------------------------
  free  energy   TOTEN  =      -115.53923845 eV

  energy  without entropy=     -115.50998997  energy(sigma->0) =     -115.52948895
 


--------------------------------------------------------------------------------------------------------


    POTLOK:  cpu time    0.0261: real time    0.0261


--------------------------------------------------------------------------------------------------------


     LOOP+:  cpu time  592.3553: real time  592.5122
    4ORBIT:  cpu time    0.0000: real time    0.0000

 total amount of memory used by VASP MPI-rank0   164307. kBytes
=======================================================================

   base      :      30000. kBytes
   nonlr-proj:       2354. kBytes
   fftplans  :       2967. kBytes
   grid      :       6321. kBytes
   one-center:         93. kBytes
   wavefun   :     122572. kBytes
 
  
  
 General timing and accounting informations for this job:
 ========================================================
  
                  Total CPU time used (sec):      599.863
                            User time (sec):      596.012
                          System time (sec):        3.851
                         Elapsed time (sec):      600.244
  
                   Maximum memory used (kb):      207408.
                   Average memory used (kb):           0.
  
                          Minor page faults:        81426
                          Major page faults:            0
                 Voluntary context switches:         1027
