 vasp.5.4.4.18Apr17-6-g9f103f2a35 (build Apr 28 2017 10:53:45) complex          
  
 executed on             LinuxIFC date 2019.07.18  17:33:13
 running on   16 total cores
 distrk:  each k-point on   16 cores,    1 groups
 distr:  one band on NCORES_PER_BAND=   4 cores,    4 groups


--------------------------------------------------------------------------------------------------------


 INCAR:
 POTCAR:    PAW_PBE Au 04Oct2007                  
 POTCAR:    PAW_PBE Ir 06Sep2000                  
 POTCAR:    PAW_PBE Pt 04Feb2005                  
 POTCAR:    PAW_PBE Au 04Oct2007                  
   VRHFIN =Au: s1d10                                                            
   LEXCH  = PE                                                                  
   EATOM  =   926.0867 eV,   68.0654 Ry                                         
                                                                                
   TITEL  = PAW_PBE Au 04Oct2007                                                
   LULTRA =        F    use ultrasoft PP ?                                      
   IUNSCR =        1    unscreen: 0-lin 1-nonlin 2-no                           
   RPACOR =    2.330    partial core radius                                     
   POMASS =  196.966; ZVAL   =   11.000    mass and valenz                      
   RCORE  =    2.500    outmost cutoff radius                                   
   RWIGS  =    2.840; RWIGS  =    1.503    wigner-seitz radius (au A)           
   ENMAX  =  229.943; ENMIN  =  172.457 eV                                      
   ICORE  =        3    local potential                                         
   LCOR   =        T    correct aug charges                                     
   LPAW   =        T    paw PP                                                  
   EAUG   =  356.670                                                            
   DEXC   =    0.000                                                            
   RMAX   =    2.562    core radius for proj-oper                               
   RAUG   =    1.300    factor for augmentation sphere                          
   RDEP   =    2.598    radius for radial grids                                 
   RDEPT  =    2.193    core radius for aug-charge                              
                                                                                
   Atomic configuration                                                         
   16 entries                                                                   
     n  l   j            E        occ.                                          
     1  0  0.50    -80748.5001   2.0000                                         
     2  0  0.50    -14244.7466   2.0000                                         
     2  1  1.50    -12310.9591   6.0000                                         
     3  0  0.50     -3362.1768   2.0000                                         
     3  1  1.50     -2801.5463   6.0000                                         
     3  2  2.50     -2203.8206  10.0000                                         
     4  0  0.50      -729.8168   2.0000                                         
     4  1  1.50      -546.0527   6.0000                                         
     4  2  2.50      -325.7302  10.0000                                         
     4  3  3.50       -81.1472  14.0000                                         
     5  0  0.50      -108.3201   2.0000                                         
     5  1  1.50       -59.7479   6.0000                                         
     5  2  2.50        -6.8783  10.0000                                         
     6  0  0.50        -5.7602   1.0000                                         
     6  1  1.50        -6.8029   0.0000                                         
     5  3  2.50        -1.3606   0.0000                                         
   Description                                                                  
     l       E           TYP  RCUT    TYP  RCUT                                 
     2     -6.8782861     23  2.500                                             
     2     -8.2388687     23  2.500                                             
     0     -5.7601759     23  2.500                                             
     0     -0.8493231     23  2.500                                             
     1     -2.7211652     23  2.500                                             
     1     27.2116520     23  2.500                                             
     3     -1.3605826     23  2.500                                             
  local pseudopotential read in
  partial core-charges read in
  partial kinetic energy density read in
  atomic valenz-charges read in
  non local Contribution for L=           2  read in
    real space projection operators read in
  non local Contribution for L=           2  read in
    real space projection operators read in
  non local Contribution for L=           0  read in
    real space projection operators read in
  non local Contribution for L=           0  read in
    real space projection operators read in
  non local Contribution for L=           1  read in
    real space projection operators read in
  non local Contribution for L=           1  read in
    real space projection operators read in
    PAW grid and wavefunctions read in
 
   number of l-projection  operators is LMAX  =           6
   number of lm-projection operators is LMMAX =          18
 
 POTCAR:    PAW_PBE Ir 06Sep2000                  
   VRHFIN =Ir: s1d8                                                             
   LEXCH  = PE                                                                  
   EATOM  =   560.1833 eV,   41.1723 Ry                                         
                                                                                
   TITEL  = PAW_PBE Ir 06Sep2000                                                
   LULTRA =        F    use ultrasoft PP ?                                      
   IUNSCR =        1    unscreen: 0-lin 1-nonlin 2-no                           
   RPACOR =    2.250    partial core radius                                     
   POMASS =  192.220; ZVAL   =    9.000    mass and valenz                      
   RCORE  =    2.600    outmost cutoff radius                                   
   RWIGS  =    2.690; RWIGS  =    1.423    wigner-seitz radius (au A)           
   ENMAX  =  210.864; ENMIN  =  158.148 eV                                      
   RCLOC  =    1.857    cutoff for local pot                                    
   LCOR   =        T    correct aug charges                                     
   LPAW   =        T    paw PP                                                  
   EAUG   =  318.962                                                            
   DEXC   =    0.000                                                            
   RMAX   =    2.667    core radius for proj-oper                               
   RAUG   =    1.300    factor for augmentation sphere                          
   RDEP   =    2.748    radius for radial grids                                 
   RDEPT  =    2.300    core radius for aug-charge                              
                                                                                
   Atomic configuration                                                         
   16 entries                                                                   
     n  l   j            E        occ.                                          
     1  0  0.50    -76100.0449   2.0000                                         
     2  0  0.50    -13308.1683   2.0000                                         
     2  1  1.50    -11558.0021   6.0000                                         
     3  0  0.50     -3110.7274   2.0000                                         
     3  1  1.50     -2599.2109   6.0000                                         
     3  2  2.50     -2037.1515  10.0000                                         
     4  0  0.50      -661.6001   2.0000                                         
     4  1  1.50      -493.8981   6.0000                                         
     4  2  2.50      -288.1909  10.0000                                         
     4  3  3.50       -59.5718  14.0000                                         
     5  0  0.50       -95.3879   2.0000                                         
     5  1  1.50       -52.2747   6.0000                                         
     5  2  2.50        -5.4180   8.0000                                         
     6  0  0.50        -5.5479   1.0000                                         
     6  1  1.50        -6.8029   0.0000                                         
     5  3  2.50        -1.3606   0.0000                                         
   Description                                                                  
     l       E           TYP  RCUT    TYP  RCUT                                 
     2     -5.4179967     23  2.600                                             
     2     -6.7785793     23  2.600                                             
     0     -5.5478636     23  2.600                                             
     0      2.2542272     23  2.600                                             
     1     -2.7211652     23  2.600                                             
     1     20.4087390     23  2.600                                             
  local pseudopotential read in
  partial core-charges read in
  partial kinetic energy density read in
  atomic valenz-charges read in
  non local Contribution for L=           2  read in
    real space projection operators read in
  non local Contribution for L=           2  read in
    real space projection operators read in
  non local Contribution for L=           0  read in
    real space projection operators read in
  non local Contribution for L=           0  read in
    real space projection operators read in
  non local Contribution for L=           1  read in
    real space projection operators read in
  non local Contribution for L=           1  read in
    real space projection operators read in
    PAW grid and wavefunctions read in
 
   number of l-projection  operators is LMAX  =           6
   number of lm-projection operators is LMMAX =          18
 
 POTCAR:    PAW_PBE Pt 04Feb2005                  
   VRHFIN =Pt: s1d9                                                             
   LEXCH  = PE                                                                  
   EATOM  =   729.1176 eV,   53.5886 Ry                                         
                                                                                
   TITEL  = PAW_PBE Pt 04Feb2005                                                
   LULTRA =        F    use ultrasoft PP ?                                      
   IUNSCR =        1    unscreen: 0-lin 1-nonlin 2-no                           
   RPACOR =    2.330    partial core radius                                     
   POMASS =  195.080; ZVAL   =   10.000    mass and valenz                      
   RCORE  =    2.600    outmost cutoff radius                                   
   RWIGS  =    2.750; RWIGS  =    1.455    wigner-seitz radius (au A)           
   ENMAX  =  230.283; ENMIN  =  172.712 eV                                      
   ICORE  =        3    local potential                                         
   LCOR   =        T    correct aug charges                                     
   LPAW   =        T    paw PP                                                  
   EAUG   =  358.966                                                            
   DEXC   =    0.000                                                            
   RMAX   =    2.658    core radius for proj-oper                               
   RAUG   =    1.300    factor for augmentation sphere                          
   RDEP   =    2.761    radius for radial grids                                 
   RDEPT  =    2.203    core radius for aug-charge                              
                                                                                
   Atomic configuration                                                         
   16 entries                                                                   
     n  l   j            E        occ.                                          
     1  0  0.50    -78401.1885   2.0000                                         
     2  0  0.50    -13770.7750   2.0000                                         
     2  1  1.50    -11931.0468   6.0000                                         
     3  0  0.50     -3234.7234   2.0000                                         
     3  1  1.50     -2699.2216   6.0000                                         
     3  2  2.50     -2119.5714  10.0000                                         
     4  0  0.50      -695.1528   2.0000                                         
     4  1  1.50      -519.6034   6.0000                                         
     4  2  2.50      -306.6786  10.0000                                         
     4  3  3.50       -70.1041  14.0000                                         
     5  0  0.50      -101.7747   2.0000                                         
     5  1  1.50       -55.9873   6.0000                                         
     5  2  2.50        -6.1423   9.0000                                         
     6  0  0.50        -5.6573   1.0000                                         
     6  1  1.50        -6.8029   0.0000                                         
     5  3  2.50        -1.3606   0.0000                                         
   Description                                                                  
     l       E           TYP  RCUT    TYP  RCUT                                 
     2     -6.1423404     23  2.500                                             
     2     -7.5029230     23  2.500                                             
     0     -5.6573207     23  2.500                                             
     0      0.7416693     23  2.500                                             
     1     -2.7211652     23  2.600                                             
     1     20.4087390     23  2.600                                             
     3     -1.3605826     23  2.500                                             
  local pseudopotential read in
  partial core-charges read in
  partial kinetic energy density read in
  atomic valenz-charges read in
  non local Contribution for L=           2  read in
    real space projection operators read in
  non local Contribution for L=           2  read in
    real space projection operators read in
  non local Contribution for L=           0  read in
    real space projection operators read in
  non local Contribution for L=           0  read in
    real space projection operators read in
  non local Contribution for L=           1  read in
    real space projection operators read in
  non local Contribution for L=           1  read in
    real space projection operators read in
    PAW grid and wavefunctions read in
 
   number of l-projection  operators is LMAX  =           6
   number of lm-projection operators is LMMAX =          18
 
 Optimization of the real space projectors (new method)

 maximal supplied QI-value         = 15.12
 optimisation between [QCUT,QGAM] = [  9.52, 19.05] = [ 25.40,101.61] Ry 
 Optimized for a Real-space Cutoff    1.57 Angstroem

   l    n(q)    QCUT    max X(q) W(low)/X(q) W(high)/X(q)  e(spline) 
   2      8     9.524    60.898    0.38E-03    0.43E-04    0.84E-07
   2      8     9.524    58.894    0.38E-03    0.47E-04    0.88E-07
   0      9     9.524   109.617    0.60E-04    0.64E-04    0.80E-07
   0      9     9.524    75.026    0.59E-04    0.62E-04    0.78E-07
   1      8     9.524    16.344    0.99E-04    0.18E-03    0.87E-07
   1      8     9.524    10.160    0.78E-04    0.15E-03    0.74E-07
 Optimization of the real space projectors (new method)

 maximal supplied QI-value         = 14.36
 optimisation between [QCUT,QGAM] = [  9.48, 19.10] = [ 25.16,102.17] Ry 
 Optimized for a Real-space Cutoff    1.57 Angstroem

   l    n(q)    QCUT    max X(q) W(low)/X(q) W(high)/X(q)  e(spline) 
   2      8     9.479   134.116    0.18E-03    0.75E-03    0.26E-06
   2      8     9.479   130.192    0.18E-03    0.75E-03    0.27E-06
   0      9     9.479    60.310    0.39E-03    0.24E-03    0.63E-07
   0      9     9.479    39.218    0.36E-03    0.22E-03    0.59E-07
   1      8     9.479    18.439    0.20E-03    0.15E-03    0.16E-06
   1      8     9.479    12.760    0.16E-03    0.11E-03    0.13E-06
 Optimization of the real space projectors (new method)

 maximal supplied QI-value         = 14.36
 optimisation between [QCUT,QGAM] = [  9.48, 19.10] = [ 25.16,102.17] Ry 
 Optimized for a Real-space Cutoff    1.57 Angstroem

   l    n(q)    QCUT    max X(q) W(low)/X(q) W(high)/X(q)  e(spline) 
   2      8     9.479    66.195    0.35E-03    0.53E-04    0.87E-07
   2      8     9.479    64.643    0.35E-03    0.57E-04    0.91E-07
   0      9     9.479    95.520    0.50E-04    0.62E-04    0.81E-07
   0      9     9.479    63.403    0.49E-04    0.60E-04    0.78E-07
   1      8     9.479    19.961    0.10E-03    0.87E-04    0.11E-06
   1      8     9.479    13.289    0.88E-04    0.71E-04    0.97E-07
  PAW_PBE Au 04Oct2007                  :
 energy of atom  1       EATOM= -926.0867
 kinetic energy error for atom=    0.0152 (will be added to EATOM!!)
  PAW_PBE Ir 06Sep2000                  :
 energy of atom  2       EATOM= -560.1833
 kinetic energy error for atom=    0.0056 (will be added to EATOM!!)
  PAW_PBE Pt 04Feb2005                  :
 energy of atom  3       EATOM= -729.1176
 kinetic energy error for atom=    0.0144 (will be added to EATOM!!)
 
 
 POSCAR: Au Ir Pt                                
  positions in cartesian coordinates
  No initial velocities read in
 exchange correlation table for  LEXCH =        8
   RHO(1)=    0.500       N(1)  =     2000
   RHO(2)=  100.500       N(2)  =     4000
 


--------------------------------------------------------------------------------------------------------


 ion  position               nearest neighbor table
   1  0.000  0.000  0.631-  15 2.77  15 2.77  16 2.77  16 2.77  14 2.77  14 2.77  12 2.83  10 2.83
                            13 2.83
   2  0.500  0.000  0.373-   5 2.77   4 2.77   5 2.77   4 2.77   3 2.77   3 2.77   7 2.77   6 2.77
                             9 2.77
   3  0.000  0.000  0.373-   4 2.77   4 2.77   5 2.77   5 2.77   2 2.77   2 2.77   6 2.77   7 2.77
                             8 2.77
   4  0.000  0.500  0.373-   3 2.77   2 2.77   3 2.77   2 2.77   5 2.77   5 2.77   8 2.77   6 2.77
                             9 2.77
   5  0.500  0.500  0.373-   2 2.77   2 2.77   3 2.77   3 2.77   4 2.77   4 2.77   9 2.77   8 2.77
                             7 2.77
   6  0.167  0.167  0.458-   8 2.77   8 2.77   9 2.77   9 2.77   7 2.77   7 2.77   3 2.77   2 2.77
                             4 2.77  10 2.81  13 2.81  11 2.81
   7  0.667  0.167  0.458-   9 2.77   8 2.77   9 2.77   8 2.77   6 2.77   6 2.77   2 2.77   3 2.77
                             5 2.77  11 2.81  12 2.81  10 2.81
   8  0.167  0.667  0.458-   6 2.77   6 2.77   7 2.77   7 2.77   9 2.77   9 2.77   4 2.77   3 2.77
                             5 2.77  11 2.81  12 2.81  13 2.81
   9  0.667  0.667  0.458-   7 2.77   6 2.77   7 2.77   6 2.77   8 2.77   8 2.77   5 2.77   4 2.77
                             2 2.77  10 2.81  13 2.81  12 2.81
  10  0.833  0.333  0.544-  12 2.77  12 2.77  13 2.77  13 2.77  11 2.77  11 2.77   6 2.81   9 2.81
                             7 2.81  15 2.83   1 2.83  16 2.83
  11  0.333  0.333  0.544-  13 2.77  12 2.77  13 2.77  12 2.77  10 2.77  10 2.77   7 2.81   8 2.81
                             6 2.81  16 2.83  15 2.83  14 2.83
  12  0.833  0.833  0.544-  10 2.77  10 2.77  11 2.77  11 2.77  13 2.77  13 2.77   7 2.81   8 2.81
                             9 2.81   1 2.83  14 2.83  15 2.83
  13  0.333  0.833  0.544-  11 2.77  10 2.77  11 2.77  10 2.77  12 2.77  12 2.77   6 2.81   9 2.81
                             8 2.81  14 2.83   1 2.83  16 2.83
  14  0.500  0.000  0.631-  16 2.77  15 2.77  16 2.77  15 2.77   1 2.77   1 2.77  13 2.83  11 2.83
                            12 2.83
  15  0.000  0.500  0.631-   1 2.77   1 2.77  14 2.77  14 2.77  16 2.77  16 2.77  10 2.83  12 2.83
                            11 2.83
  16  0.500  0.500  0.631-  14 2.77   1 2.77  14 2.77   1 2.77  15 2.77  15 2.77  11 2.83  10 2.83
                            13 2.83
 
  LATTYP: Found a hexagonal cell.
 ALAT       =     5.5437171645
 C/A-ratio  =     4.8324325305
  
  Lattice vectors:
  
 A1 = (   2.7718585823,  -4.8009998959,   0.0000000000)
 A2 = (  -5.5437171645,   0.0000000000,   0.0000000000)
 A3 = (   0.0000000000,   0.0000000000, -26.7896391657)


Analysis of symmetry for initial positions (statically):
=====================================================================
 Subroutine PRICEL returns:
 Original cell was already a primitive cell.
 

 Routine SETGRP: Setting up the symmetry group for a 
 hexagonal supercell.


 Subroutine GETGRP returns: Found  2 space group operations
 (whereof  2 operations were pure point group operations)
 out of a pool of 24 trial point group operations.


The static configuration has the point symmetry C_1h.


Analysis of symmetry for dynamics (positions and initial velocities):
=====================================================================
 Subroutine PRICEL returns:
 Original cell was already a primitive cell.
 

 Routine SETGRP: Setting up the symmetry group for a 
 hexagonal supercell.


 Subroutine GETGRP returns: Found  2 space group operations
 (whereof  2 operations were pure point group operations)
 out of a pool of 24 trial point group operations.


The dynamic configuration has the point symmetry C_1h.


Analysis of constrained symmetry for selective dynamics:
=====================================================================
 Subroutine PRICEL returns:
 Original cell was already a primitive cell.
 

 Routine SETGRP: Setting up the symmetry group for a 
 hexagonal supercell.


 Subroutine GETGRP returns: Found  2 space group operations
 (whereof  2 operations were pure point group operations)
 out of a pool of 24 trial point group operations.


The constrained configuration has the point symmetry C_1h.


 Subroutine INISYM returns: Found  2 space group operations
 (whereof  2 operations are pure point group operations),
 and found     1 'primitive' translations

 
 
 KPOINTS: 0.1.Ir1.Au12                            

Automatic generation of k-mesh.
Space group operators:
 irot       det(A)        alpha          n_x          n_y          n_z        tau_x        tau_y        tau_z
    1     1.000000     0.000001     1.000000     0.000000     0.000000     0.000000     0.000000     0.000000
    2    -1.000000   180.000000     1.000000     0.000000     0.000000     0.000000     0.000000     0.000000
 
 Subroutine IBZKPT returns following result:
 ===========================================
 
 Found     52 irreducible k-points:
 
 Following reciprocal coordinates:
            Coordinates               Weight
  0.062500  0.062500  0.000000     32.000000
  0.000000  0.062500  0.000000     16.000000
  0.187500  0.062500  0.000000     32.000000
  0.125000  0.187500  0.000000     32.000000
 -0.062500  0.125000  0.000000     32.000000
  0.312500  0.062500  0.000000     32.000000
  0.250000  0.312500  0.000000     32.000000
 -0.062500  0.250000  0.000000     32.000000
  0.437500  0.062500  0.000000     32.000000
  0.375000  0.437500  0.000000     32.000000
 -0.062500  0.375000  0.000000     32.000000
 -0.437500  0.062500  0.000000     32.000000
  0.500000 -0.437500  0.000000     32.000000
 -0.062500  0.500000  0.000000     32.000000
 -0.312500  0.062500  0.000000     32.000000
 -0.375000 -0.312500  0.000000     32.000000
 -0.062500 -0.375000  0.000000     32.000000
 -0.187500  0.062500  0.000000     32.000000
 -0.250000 -0.187500  0.000000     32.000000
 -0.062500 -0.250000  0.000000     32.000000
 -0.062500  0.062500  0.000000     32.000000
 -0.125000 -0.062500  0.000000     16.000000
  0.187500  0.187500  0.000000     32.000000
  0.000000  0.187500  0.000000     16.000000
  0.312500  0.187500  0.000000     32.000000
  0.125000  0.312500  0.000000     32.000000
 -0.187500  0.125000  0.000000     32.000000
  0.437500  0.187500  0.000000     32.000000
  0.250000  0.437500  0.000000     32.000000
 -0.187500  0.250000  0.000000     32.000000
 -0.437500  0.187500  0.000000     32.000000
  0.375000 -0.437500  0.000000     32.000000
 -0.187500  0.375000  0.000000     32.000000
 -0.312500  0.187500  0.000000     32.000000
  0.500000 -0.312500  0.000000     32.000000
 -0.187500  0.500000  0.000000     32.000000
 -0.187500  0.187500  0.000000     32.000000
 -0.375000 -0.187500  0.000000     16.000000
  0.312500  0.312500  0.000000     32.000000
  0.000000  0.312500  0.000000     16.000000
  0.437500  0.312500  0.000000     32.000000
  0.125000  0.437500  0.000000     32.000000
 -0.312500  0.125000  0.000000     32.000000
 -0.437500  0.312500  0.000000     32.000000
  0.250000 -0.437500  0.000000     32.000000
 -0.312500  0.250000  0.000000     32.000000
 -0.312500  0.312500  0.000000     32.000000
  0.375000 -0.312500  0.000000     16.000000
  0.437500  0.437500  0.000000     32.000000
  0.000000  0.437500  0.000000     16.000000
 -0.437500  0.437500  0.000000     32.000000
  0.125000 -0.437500  0.000000     16.000000
 
 Following cartesian coordinates:
            Coordinates               Weight
  0.011274  0.006509  0.000000     32.000000
  0.000000  0.013018  0.000000     16.000000
  0.033822 -0.006509  0.000000     32.000000
  0.022548  0.026036  0.000000     32.000000
 -0.011274  0.032545  0.000000     32.000000
  0.056370 -0.019527  0.000000     32.000000
  0.045096  0.039054  0.000000     32.000000
 -0.011274  0.058582  0.000000     32.000000
  0.078918 -0.032545  0.000000     32.000000
  0.067644  0.052072  0.000000     32.000000
 -0.011274  0.084618  0.000000     32.000000
 -0.078918  0.058582  0.000000     32.000000
  0.090192 -0.143199  0.000000     32.000000
 -0.011274  0.110654  0.000000     32.000000
 -0.056370  0.045563  0.000000     32.000000
 -0.067644 -0.026036  0.000000     32.000000
 -0.011274 -0.071600  0.000000     32.000000
 -0.033822  0.032545  0.000000     32.000000
 -0.045096 -0.013018  0.000000     32.000000
 -0.011274 -0.045563  0.000000     32.000000
 -0.011274  0.019527  0.000000     32.000000
 -0.022548  0.000000  0.000000     16.000000
  0.033822  0.019527  0.000000     32.000000
  0.000000  0.039054  0.000000     16.000000
  0.056370  0.006509  0.000000     32.000000
  0.022548  0.052072  0.000000     32.000000
 -0.033822  0.045563  0.000000     32.000000
  0.078918 -0.006509  0.000000     32.000000
  0.045096  0.065091  0.000000     32.000000
 -0.033822  0.071600  0.000000     32.000000
 -0.078918  0.084618  0.000000     32.000000
  0.067644 -0.130181  0.000000     32.000000
 -0.033822  0.097636  0.000000     32.000000
 -0.056370  0.071600  0.000000     32.000000
  0.090192 -0.117163  0.000000     32.000000
 -0.033822  0.123672  0.000000     32.000000
 -0.033822  0.058582  0.000000     32.000000
 -0.067644  0.000000  0.000000     16.000000
  0.056370  0.032545  0.000000     32.000000
  0.000000  0.065091  0.000000     16.000000
  0.078918  0.019527  0.000000     32.000000
  0.022548  0.078109  0.000000     32.000000
 -0.056370  0.058582  0.000000     32.000000
 -0.078918  0.110654  0.000000     32.000000
  0.045096 -0.117163  0.000000     32.000000
 -0.056370  0.084618  0.000000     32.000000
 -0.056370  0.097636  0.000000     32.000000
  0.067644 -0.104145  0.000000     16.000000
  0.078918  0.045563  0.000000     32.000000
  0.000000  0.091127  0.000000     16.000000
 -0.078918  0.136690  0.000000     32.000000
  0.022548 -0.104145  0.000000     16.000000
 


--------------------------------------------------------------------------------------------------------




 Dimension of arrays:
   k-points           NKPTS =     52   k-points in BZ     NKDIM =     52   number of bands    NBANDS=     96
   number of dos      NEDOS =    301   number of ions     NIONS =     16
   non local maximal  LDIM  =      6   non local SUM 2l+1 LMDIM =     18
   total plane-waves  NPLWV =  98784
   max r-space proj   IRMAX =   2277   max aug-charges    IRDMAX=  10217
   dimension x,y,z NGX =    28 NGY =   28 NGZ =  126
   dimension x,y,z NGXF=    56 NGYF=   56 NGZF=  252
   support grid    NGXF=    56 NGYF=   56 NGZF=  252
   ions per type =               1   1  14
   NGX,Y,Z   is equivalent  to a cutoff of   8.40,  8.40,  7.82 a.u.
   NGXF,Y,Z  is equivalent  to a cutoff of  16.79, 16.79, 15.64 a.u.

 SYSTEM =  0.1.Ir1.Au12                            
 POSCAR =  Au Ir Pt                                

 Startparameter for this run:
   NWRITE =      2    write-flag & timer
   PREC   = normal    normal or accurate (medium, high low for compatibility)
   ISTART =      0    job   : 0-new  1-cont  2-samecut
   ICHARG =      2    charge: 1-file 2-atom 10-const
   ISPIN  =      1    spin polarized calculation?
   LNONCOLLINEAR =      F non collinear calculations
   LSORBIT =      F    spin-orbit coupling
   INIWAV =      1    electr: 0-lowe 1-rand  2-diag
   LASPH  =      F    aspherical Exc in radial PAW
   METAGGA=      F    non-selfconsistent MetaGGA calc.

 Electronic Relaxation 1
   ENCUT  =  350.0 eV  25.72 Ry    5.07 a.u.   8.46  8.46 40.87*2*pi/ulx,y,z
   ENINI  =  350.0     initial cutoff
   ENAUG  =  359.0 eV  augmentation charge cutoff
   NELM   =   1000;   NELMIN=  5; NELMDL= -5     # of ELM steps 
   EDIFF  = 0.1E-04   stopping-criterion for ELM
   LREAL  =      T    real-space projection
   NLSPLINE    = F    spline interpolate recip. space projectors
   LCOMPAT=      F    compatible to vasp.4.4
   GGA_COMPAT  = T    GGA compatible to vasp.4.4-vasp.4.6
   LMAXPAW     = -100 max onsite density
   LMAXMIX     =    2 max onsite mixed and CHGCAR
   VOSKOWN=      0    Vosko Wilk Nusair interpolation
   ROPT   =   -0.00050  -0.00050  -0.00050
 Ionic relaxation
   EDIFFG = 0.1E-03   stopping-criterion for IOM
   NSW    =      0    number of steps for IOM
   NBLOCK =      1;   KBLOCK =      1    inner block; outer block 
   IBRION =     -1    ionic relax: 0-MD 1-quasi-New 2-CG
   NFREE  =      0    steps in history (QN), initial steepest desc. (CG)
   ISIF   =      2    stress and relaxation
   IWAVPR =     10    prediction:  0-non 1-charg 2-wave 3-comb
   ISYM   =      2    0-nonsym 1-usesym 2-fastsym
   LCORR  =      T    Harris-Foulkes like correction to forces

   POTIM  = 0.5000    time-step for ionic-motion
   TEIN   =    0.0    initial temperature
   TEBEG  =    0.0;   TEEND  =   0.0 temperature during run
   SMASS  =  -3.00    Nose mass-parameter (am)
   estimated Nose-frequenzy (Omega)   =  0.10E-29 period in steps =****** mass=  -0.702E-27a.u.
   SCALEE = 1.0000    scale energy and forces
   NPACO  =    256;   APACO  = 16.0  distance and # of slots for P.C.
   PSTRESS=    0.0 pullay stress

  Mass of Ions in am
   POMASS = 196.97192.22195.08
  Ionic Valenz
   ZVAL   =  11.00  9.00 10.00
  Atomic Wigner-Seitz radii
   RWIGS  =  -1.00 -1.00 -1.00
  virtual crystal weights 
   VCA    =   1.00  1.00  1.00
   NELECT =     160.0000    total number of electrons
   NUPDOWN=      -1.0000    fix difference up-down

 DOS related values:
   EMIN   =  10.00;   EMAX   =-10.00  energy-range for DOS
   EFERMI =   0.00
   ISMEAR =     1;   SIGMA  =   0.20  broadening in eV -4-tet -1-fermi 0-gaus

 Electronic relaxation 2 (details)
   IALGO  =     38    algorithm
   LDIAG  =      T    sub-space diagonalisation (order eigenvalues)
   LSUBROT=      F    optimize rotation matrix (better conditioning)
   TURBO    =      0    0=normal 1=particle mesh
   IRESTART =      0    0=no restart 2=restart with 2 vectors
   NREBOOT  =      0    no. of reboots
   NMIN     =      0    reboot dimension
   EREF     =   0.00    reference energy to select bands
   IMIX   =      4    mixing-type and parameters
     AMIX     =   0.40;   BMIX     =  1.00
     AMIX_MAG =   1.60;   BMIX_MAG =  1.00
     AMIN     =   0.10
     WC   =   100.;   INIMIX=   1;  MIXPRE=   1;  MAXMIX= -45

 Intra band minimization:
   WEIMIN = 0.0000     energy-eigenvalue tresh-hold
   EBREAK =  0.26E-07  absolut break condition
   DEPER  =   0.30     relativ break condition  

   TIME   =   0.40     timestep for ELM

  volume/ion in A,a.u.               =      44.56       300.73
  Fermi-wavevector in a.u.,A,eV,Ry     =   0.994829  1.879954 13.465469  0.989684
  Thomas-Fermi vector in A             =   2.126807
 
 Write flags
   LWAVE        =      F    write WAVECAR
   LDOWNSAMPLE  =      F    k-point downsampling of WAVECAR
   LCHARG       =      F    write CHGCAR
   LVTOT        =      F    write LOCPOT, total local potential
   LVHAR        =      F    write LOCPOT, Hartree potential only
   LELF         =      F    write electronic localiz. function (ELF)
   LORBIT       =      0    0 simple, 1 ext, 2 COOP (PROOUT), +10 PAW based schemes


 Dipole corrections
   LMONO  =      F    monopole corrections only (constant potential shift)
   LDIPOL =      F    correct potential (dipole corrections)
   IDIPOL =      3    1-x, 2-y, 3-z, 4-all directions 
   EPSILON=  1.0000000 bulk dielectric constant

 Exchange correlation treatment:
   GGA     =    --    GGA type
   LEXCH   =     8    internal setting for exchange type
   VOSKOWN=      0    Vosko Wilk Nusair interpolation
   LHFCALC =     F    Hartree Fock is set to
   LHFONE  =     F    Hartree Fock one center treatment
   AEXX    =    0.0000 exact exchange contribution

 Linear response parameters
   LEPSILON=     F    determine dielectric tensor
   LRPA    =     F    only Hartree local field effects (RPA)
   LNABLA  =     F    use nabla operator in PAW spheres
   LVEL    =     F    velocity operator in full k-point grid
   LINTERFAST=   F  fast interpolation
   KINTER  =     0    interpolate to denser k-point grid
   CSHIFT  =0.1000    complex shift for real part using Kramers Kronig
   OMEGAMAX=  -1.0    maximum frequency
   DEG_THRESHOLD= 0.2000000E-02 threshold for treating states as degnerate
   RTIME   =   -0.100 relaxation time in fs
  (WPLASMAI=    0.000 imaginary part of plasma frequency in eV, 0.658/RTIME)
   DFIELD  = 0.0000000 0.0000000 0.0000000 field for delta impulse in time
 
 Orbital magnetization related:
   ORBITALMAG=     F  switch on orbital magnetization
   LCHIMAG   =     F  perturbation theory with respect to B field
   DQ        =  0.001000  dq finite difference perturbation B field
   LLRAUG    =     F  two centre corrections for induced B field



--------------------------------------------------------------------------------------------------------


 Static calculation
 charge density and potential will be updated during run
 non-spin polarized calculation
 Variant of blocked Davidson
 Davidson routine will perform the subspace rotation
 perform sub-space diagonalisation
    after iterative eigenvector-optimisation
 modified Broyden-mixing scheme, WC =      100.0
 initial mixing is a Kerker type mixing with AMIX =  0.4000 and BMIX =      1.0000
 Hartree-type preconditioning will be used
 using additional bands           16
 real space projection scheme for non local part
 use partial core corrections
 calculate Harris-corrections to forces 
   (improved forces if not selfconsistent)
 use gradient corrections 
 use of overlap-Matrix (Vanderbilt PP)
 Methfessel and Paxton  Order N= 1 SIGMA  =   0.20


--------------------------------------------------------------------------------------------------------


  energy-cutoff  :      350.00
  volume of cell :      713.02
      direct lattice vectors                 reciprocal lattice vectors
     5.543717165  0.000000000  0.000000000     0.180384383 -0.104144972  0.000000000
     2.771858582  4.800999896  0.000000000     0.000000000  0.208289944  0.000000000
     0.000000000  0.000000000 26.789639166     0.000000000  0.000000000  0.037327864

  length of vectors
     5.543717165  5.543717165 26.789639166     0.208289944  0.208289944  0.037327864


 
 k-points in units of 2pi/SCALE and weight: 0.1.Ir1.Au12                            
   0.01127402  0.00650906  0.00000000       0.021
   0.00000000  0.01301812  0.00000000       0.010
   0.03382207 -0.00650906  0.00000000       0.021
   0.02254805  0.02603624  0.00000000       0.021
  -0.01127402  0.03254530  0.00000000       0.021
   0.05637012 -0.01952718  0.00000000       0.021
   0.04509610  0.03905436  0.00000000       0.021
  -0.01127402  0.05858155  0.00000000       0.021
   0.07891817 -0.03254530  0.00000000       0.021
   0.06764414  0.05207249  0.00000000       0.021
  -0.01127402  0.08461779  0.00000000       0.021
  -0.07891817  0.05858155  0.00000000       0.021
   0.09019219 -0.14319934  0.00000000       0.021
  -0.01127402  0.11065403  0.00000000       0.021
  -0.05637012  0.04556343  0.00000000       0.021
  -0.06764414 -0.02603624  0.00000000       0.021
  -0.01127402 -0.07159967  0.00000000       0.021
  -0.03382207  0.03254530  0.00000000       0.021
  -0.04509610 -0.01301812  0.00000000       0.021
  -0.01127402 -0.04556343  0.00000000       0.021
  -0.01127402  0.01952718  0.00000000       0.021
  -0.02254805  0.00000000  0.00000000       0.010
   0.03382207  0.01952718  0.00000000       0.021
   0.00000000  0.03905436  0.00000000       0.010
   0.05637012  0.00650906  0.00000000       0.021
   0.02254805  0.05207249  0.00000000       0.021
  -0.03382207  0.04556343  0.00000000       0.021
   0.07891817 -0.00650906  0.00000000       0.021
   0.04509610  0.06509061  0.00000000       0.021
  -0.03382207  0.07159967  0.00000000       0.021
  -0.07891817  0.08461779  0.00000000       0.021
   0.06764414 -0.13018122  0.00000000       0.021
  -0.03382207  0.09763591  0.00000000       0.021
  -0.05637012  0.07159967  0.00000000       0.021
   0.09019219 -0.11716309  0.00000000       0.021
  -0.03382207  0.12367215  0.00000000       0.021
  -0.03382207  0.05858155  0.00000000       0.021
  -0.06764414  0.00000000  0.00000000       0.010
   0.05637012  0.03254530  0.00000000       0.021
   0.00000000  0.06509061  0.00000000       0.010
   0.07891817  0.01952718  0.00000000       0.021
   0.02254805  0.07810873  0.00000000       0.021
  -0.05637012  0.05858155  0.00000000       0.021
  -0.07891817  0.11065403  0.00000000       0.021
   0.04509610 -0.11716309  0.00000000       0.021
  -0.05637012  0.08461779  0.00000000       0.021
  -0.05637012  0.09763591  0.00000000       0.021
   0.06764414 -0.10414497  0.00000000       0.010
   0.07891817  0.04556343  0.00000000       0.021
   0.00000000  0.09112685  0.00000000       0.010
  -0.07891817  0.13669028  0.00000000       0.021
   0.02254805 -0.10414497  0.00000000       0.010
 
 k-points in reciprocal lattice and weights: 0.1.Ir1.Au12                            
   0.06250000  0.06250000  0.00000000       0.021
   0.00000000  0.06250000  0.00000000       0.010
   0.18750000  0.06250000  0.00000000       0.021
   0.12500000  0.18750000  0.00000000       0.021
  -0.06250000  0.12500000  0.00000000       0.021
   0.31250000  0.06250000  0.00000000       0.021
   0.25000000  0.31250000  0.00000000       0.021
  -0.06250000  0.25000000  0.00000000       0.021
   0.43750000  0.06250000  0.00000000       0.021
   0.37500000  0.43750000  0.00000000       0.021
  -0.06250000  0.37500000  0.00000000       0.021
  -0.43750000  0.06250000  0.00000000       0.021
   0.50000000 -0.43750000  0.00000000       0.021
  -0.06250000  0.50000000  0.00000000       0.021
  -0.31250000  0.06250000  0.00000000       0.021
  -0.37500000 -0.31250000  0.00000000       0.021
  -0.06250000 -0.37500000  0.00000000       0.021
  -0.18750000  0.06250000  0.00000000       0.021
  -0.25000000 -0.18750000  0.00000000       0.021
  -0.06250000 -0.25000000  0.00000000       0.021
  -0.06250000  0.06250000  0.00000000       0.021
  -0.12500000 -0.06250000  0.00000000       0.010
   0.18750000  0.18750000  0.00000000       0.021
   0.00000000  0.18750000  0.00000000       0.010
   0.31250000  0.18750000  0.00000000       0.021
   0.12500000  0.31250000  0.00000000       0.021
  -0.18750000  0.12500000  0.00000000       0.021
   0.43750000  0.18750000  0.00000000       0.021
   0.25000000  0.43750000  0.00000000       0.021
  -0.18750000  0.25000000  0.00000000       0.021
  -0.43750000  0.18750000  0.00000000       0.021
   0.37500000 -0.43750000  0.00000000       0.021
  -0.18750000  0.37500000  0.00000000       0.021
  -0.31250000  0.18750000  0.00000000       0.021
   0.50000000 -0.31250000  0.00000000       0.021
  -0.18750000  0.50000000  0.00000000       0.021
  -0.18750000  0.18750000  0.00000000       0.021
  -0.37500000 -0.18750000  0.00000000       0.010
   0.31250000  0.31250000  0.00000000       0.021
   0.00000000  0.31250000  0.00000000       0.010
   0.43750000  0.31250000  0.00000000       0.021
   0.12500000  0.43750000  0.00000000       0.021
  -0.31250000  0.12500000  0.00000000       0.021
  -0.43750000  0.31250000  0.00000000       0.021
   0.25000000 -0.43750000  0.00000000       0.021
  -0.31250000  0.25000000  0.00000000       0.021
  -0.31250000  0.31250000  0.00000000       0.021
   0.37500000 -0.31250000  0.00000000       0.010
   0.43750000  0.43750000  0.00000000       0.021
   0.00000000  0.43750000  0.00000000       0.010
  -0.43750000  0.43750000  0.00000000       0.021
   0.12500000 -0.43750000  0.00000000       0.010
 
 position of ions in fractional coordinates (direct lattice) 
   0.00000000  0.00000000  0.63112717
   0.50000000  0.00000000  0.37327864
   0.00000000  0.00000000  0.37327864
   0.00000000  0.50000000  0.37327864
   0.50000000  0.50000000  0.37327864
   0.16666667  0.16666667  0.45775955
   0.66666667  0.16666667  0.45775955
   0.16666667  0.66666667  0.45775955
   0.66666667  0.66666667  0.45775955
   0.83333333  0.33333333  0.54381573
   0.33333333  0.33333333  0.54381573
   0.83333333  0.83333333  0.54381573
   0.33333333  0.83333333  0.54381573
   0.50000000  0.00000000  0.63112717
   0.00000000  0.50000000  0.63112717
   0.50000000  0.50000000  0.63112717
 
 position of ions in cartesian coordinates  (Angst):
   0.00000000  0.00000000 16.90766902
   2.77185858  0.00000000 10.00000000
   0.00000000  0.00000000 10.00000000
   1.38592929  2.40049995 10.00000000
   4.15778787  2.40049995 10.00000000
   1.38592929  0.80016665 12.26321306
   4.15778787  0.80016665 12.26321306
   2.77185858  3.20066660 12.26321306
   5.54371716  3.20066660 12.26321306
   5.54371716  1.60033330 14.56862716
   2.77185858  1.60033330 14.56862716
   6.92964646  4.00083325 14.56862716
   4.15778787  4.00083325 14.56862716
   2.77185858  0.00000000 16.90766902
   1.38592929  2.40049995 16.90766902
   4.15778787  2.40049995 16.90766902
 


--------------------------------------------------------------------------------------------------------


 k-point  1 :   0.0625 0.0625 0.0000  plane waves:   10681
 k-point  2 :   0.0000 0.0625 0.0000  plane waves:   10681
 k-point  3 :   0.1875 0.0625 0.0000  plane waves:   10654
 k-point  4 :   0.1250 0.1875 0.0000  plane waves:   10654
 k-point  5 :  -0.0625 0.1250 0.0000  plane waves:   10654
 k-point  6 :   0.3125 0.0625 0.0000  plane waves:   10616
 k-point  7 :   0.2500 0.3125 0.0000  plane waves:   10616
 k-point  8 :  -0.0625 0.2500 0.0000  plane waves:   10616
 k-point  9 :   0.4375 0.0625 0.0000  plane waves:   10577
 k-point 10 :   0.3750 0.4375 0.0000  plane waves:   10577
 k-point 11 :  -0.0625 0.3750 0.0000  plane waves:   10577
 k-point 12 :  -0.4375 0.0625 0.0000  plane waves:   10551
 k-point 13 :   0.5000-0.4375 0.0000  plane waves:   10551
 k-point 14 :  -0.0625 0.5000 0.0000  plane waves:   10551
 k-point 15 :  -0.3125 0.0625 0.0000  plane waves:   10587
 k-point 16 :  -0.3750-0.3125 0.0000  plane waves:   10587
 k-point 17 :  -0.0625-0.3750 0.0000  plane waves:   10587
 k-point 18 :  -0.1875 0.0625 0.0000  plane waves:   10616
 k-point 19 :  -0.2500-0.1875 0.0000  plane waves:   10616
 k-point 20 :  -0.0625-0.2500 0.0000  plane waves:   10616
 k-point 21 :  -0.0625 0.0625 0.0000  plane waves:   10677
 k-point 22 :  -0.1250-0.0625 0.0000  plane waves:   10677
 k-point 23 :   0.1875 0.1875 0.0000  plane waves:   10631
 k-point 24 :   0.0000 0.1875 0.0000  plane waves:   10631
 k-point 25 :   0.3125 0.1875 0.0000  plane waves:   10620
 k-point 26 :   0.1250 0.3125 0.0000  plane waves:   10620
 k-point 27 :  -0.1875 0.1250 0.0000  plane waves:   10620
 k-point 28 :   0.4375 0.1875 0.0000  plane waves:   10599
 k-point 29 :   0.2500 0.4375 0.0000  plane waves:   10599
 k-point 30 :  -0.1875 0.2500 0.0000  plane waves:   10599
 k-point 31 :  -0.4375 0.1875 0.0000  plane waves:   10577
 k-point 32 :   0.3750-0.4375 0.0000  plane waves:   10577
 k-point 33 :  -0.1875 0.3750 0.0000  plane waves:   10577
 k-point 34 :  -0.3125 0.1875 0.0000  plane waves:   10577
 k-point 35 :   0.5000-0.3125 0.0000  plane waves:   10577
 k-point 36 :  -0.1875 0.5000 0.0000  plane waves:   10577
 k-point 37 :  -0.1875 0.1875 0.0000  plane waves:   10613
 k-point 38 :  -0.3750-0.1875 0.0000  plane waves:   10613
 k-point 39 :   0.3125 0.3125 0.0000  plane waves:   10603
 k-point 40 :   0.0000 0.3125 0.0000  plane waves:   10603
 k-point 41 :   0.4375 0.3125 0.0000  plane waves:   10605
 k-point 42 :   0.1250 0.4375 0.0000  plane waves:   10605
 k-point 43 :  -0.3125 0.1250 0.0000  plane waves:   10605
 k-point 44 :  -0.4375 0.3125 0.0000  plane waves:   10593
 k-point 45 :   0.2500-0.4375 0.0000  plane waves:   10593
 k-point 46 :  -0.3125 0.2500 0.0000  plane waves:   10593
 k-point 47 :  -0.3125 0.3125 0.0000  plane waves:   10592
 k-point 48 :   0.3750-0.3125 0.0000  plane waves:   10592
 k-point 49 :   0.4375 0.4375 0.0000  plane waves:   10562
 k-point 50 :   0.0000 0.4375 0.0000  plane waves:   10562
 k-point 51 :  -0.4375 0.4375 0.0000  plane waves:   10550
 k-point 52 :   0.1250-0.4375 0.0000  plane waves:   10550

 maximum and minimum number of plane-waves per node :      2689     2616

 maximum number of plane-waves:     10681
 maximum index in each direction: 
   IXMAX=    8   IYMAX=    8   IZMAX=   40
   IXMIN=   -8   IYMIN=   -8   IZMIN=  -40


 real space projection operators:
  total allocation   :       4856.06 KBytes
  max/ min on nodes  :       1216.41       1211.62


 parallel 3D FFT for wavefunctions:
    minimum data exchange during FFTs selected (reduces bandwidth)
 parallel 3D FFT for charge:
    minimum data exchange during FFTs selected (reduces bandwidth)


 total amount of memory used by VASP MPI-rank0    94183. kBytes
=======================================================================

   base      :      30000. kBytes
   nonlr-proj:       2110. kBytes
   fftplans  :       2594. kBytes
   grid      :       4625. kBytes
   one-center:         62. kBytes
   wavefun   :      54792. kBytes
 
     INWAV:  cpu time    0.0000: real time    0.0000
 Broyden mixing: mesh for mixing (old mesh)
   NGX = 17   NGY = 17   NGZ = 81
  (NGX  = 56   NGY  = 56   NGZ  =252)
  gives a total of  23409 points

 initial charge density was supplied:
 charge density of overlapping atoms calculated
 number of electron     160.0000000 magnetization 
 keeping initial charge density in first step


--------------------------------------------------------------------------------------------------------


 Maximum index for non-local projection operator          548
 Maximum index for augmentation-charges          738 (set IRDMAX)


--------------------------------------------------------------------------------------------------------


 First call to EWALD:  gamma=   0.198
 Maximum number of real-space cells 5x 5x 1
 Maximum number of reciprocal cells 2x 2x 7

    FEWALD:  cpu time    0.0013: real time    0.0012


--------------------------------------- Iteration      1(   1)  ---------------------------------------


    POTLOK:  cpu time    0.0221: real time    0.0271
    SETDIJ:  cpu time    0.0025: real time    0.0025
     EDDAV:  cpu time    6.0599: real time    6.0603
       DOS:  cpu time    0.0042: real time    0.0042
    --------------------------------------------
      LOOP:  cpu time    6.0887: real time    6.0941

 eigenvalue-minimisations  : 10032
 total energy-change (2. order) : 0.9773851E+03  (-0.5661918E+04)
 number of electron     160.0000000 magnetization 
 augmentation part      160.0000000 magnetization 

 Free energy of the ion-electron system (eV)
  ---------------------------------------------------
  alpha Z        PSCENC =       350.82459594
  Ewald energy   TEWEN  =     72997.72182899
  -Hartree energ DENC   =    -85232.38465989
  -exchange      EXHF   =         0.00000000
  -V(xc)+E(xc)   XCENC  =        46.84694246
  PAW double counting   =     11171.21661038   -10711.84633960
  entropy T*S    EENTRO =         0.01644813
  eigenvalues    EBANDS =       661.29544561
  atomic energy  EATOM  =     11693.69420960
  Solvation  Ediel_sol  =         0.00000000
  ---------------------------------------------------
  free energy    TOTEN  =       977.38508162 eV

  energy without entropy =      977.36863349  energy(sigma->0) =      977.37959891


--------------------------------------------------------------------------------------------------------




--------------------------------------- Iteration      1(   2)  ---------------------------------------


     EDDAV:  cpu time    7.0636: real time    7.0672
       DOS:  cpu time    0.0052: real time    0.0052
    --------------------------------------------
      LOOP:  cpu time    7.0687: real time    7.0724

 eigenvalue-minimisations  : 12256
 total energy-change (2. order) :-0.9955006E+03  (-0.9139473E+03)
 number of electron     160.0000000 magnetization 
 augmentation part      160.0000000 magnetization 

 Free energy of the ion-electron system (eV)
  ---------------------------------------------------
  alpha Z        PSCENC =       350.82459594
  Ewald energy   TEWEN  =     72997.72182899
  -Hartree energ DENC   =    -85232.38465989
  -exchange      EXHF   =         0.00000000
  -V(xc)+E(xc)   XCENC  =        46.84694246
  PAW double counting   =     11171.21661038   -10711.84633960
  entropy T*S    EENTRO =         0.00178038
  eigenvalues    EBANDS =      -334.19051815
  atomic energy  EATOM  =     11693.69420960
  Solvation  Ediel_sol  =         0.00000000
  ---------------------------------------------------
  free energy    TOTEN  =       -18.11554989 eV

  energy without entropy =      -18.11733027  energy(sigma->0) =      -18.11614335


--------------------------------------------------------------------------------------------------------




--------------------------------------- Iteration      1(   3)  ---------------------------------------


     EDDAV:  cpu time    6.8967: real time    6.8974
       DOS:  cpu time    0.0055: real time    0.0055
    --------------------------------------------
      LOOP:  cpu time    6.9021: real time    6.9029

 eigenvalue-minimisations  : 11904
 total energy-change (2. order) :-0.7682476E+02  (-0.6919381E+02)
 number of electron     160.0000000 magnetization 
 augmentation part      160.0000000 magnetization 

 Free energy of the ion-electron system (eV)
  ---------------------------------------------------
  alpha Z        PSCENC =       350.82459594
  Ewald energy   TEWEN  =     72997.72182899
  -Hartree energ DENC   =    -85232.38465989
  -exchange      EXHF   =         0.00000000
  -V(xc)+E(xc)   XCENC  =        46.84694246
  PAW double counting   =     11171.21661038   -10711.84633960
  entropy T*S    EENTRO =        -0.02383233
  eigenvalues    EBANDS =      -410.98966654
  atomic energy  EATOM  =     11693.69420960
  Solvation  Ediel_sol  =         0.00000000
  ---------------------------------------------------
  free energy    TOTEN  =       -94.94031100 eV

  energy without entropy =      -94.91647866  energy(sigma->0) =      -94.93236689


--------------------------------------------------------------------------------------------------------




--------------------------------------- Iteration      1(   4)  ---------------------------------------


     EDDAV:  cpu time    7.6287: real time    7.6292
       DOS:  cpu time    0.0055: real time    0.0055
    --------------------------------------------
      LOOP:  cpu time    7.6341: real time    7.6347

 eigenvalue-minimisations  : 13528
 total energy-change (2. order) :-0.3309557E+01  (-0.3165689E+01)
 number of electron     160.0000000 magnetization 
 augmentation part      160.0000000 magnetization 

 Free energy of the ion-electron system (eV)
  ---------------------------------------------------
  alpha Z        PSCENC =       350.82459594
  Ewald energy   TEWEN  =     72997.72182899
  -Hartree energ DENC   =    -85232.38465989
  -exchange      EXHF   =         0.00000000
  -V(xc)+E(xc)   XCENC  =        46.84694246
  PAW double counting   =     11171.21661038   -10711.84633960
  entropy T*S    EENTRO =        -0.02330465
  eigenvalues    EBANDS =      -414.29975085
  atomic energy  EATOM  =     11693.69420960
  Solvation  Ediel_sol  =         0.00000000
  ---------------------------------------------------
  free energy    TOTEN  =       -98.24986762 eV

  energy without entropy =      -98.22656297  energy(sigma->0) =      -98.24209940


--------------------------------------------------------------------------------------------------------




--------------------------------------- Iteration      1(   5)  ---------------------------------------


     EDDAV:  cpu time    7.3634: real time    7.3664
       DOS:  cpu time    0.0056: real time    0.0056
    CHARGE:  cpu time    0.3390: real time    0.3390
    MIXING:  cpu time    0.0010: real time    0.0010
    --------------------------------------------
      LOOP:  cpu time    7.7090: real time    7.7120

 eigenvalue-minimisations  : 12960
 total energy-change (2. order) :-0.8496700E-01  (-0.8461820E-01)
 number of electron     160.0000135 magnetization 
 augmentation part       46.9723703 magnetization 

 Broyden mixing:
  rms(total) = 0.42932E+01    rms(broyden)= 0.42931E+01
  rms(prec ) = 0.43305E+01
  weight for this iteration     100.00

 Free energy of the ion-electron system (eV)
  ---------------------------------------------------
  alpha Z        PSCENC =       350.82459594
  Ewald energy   TEWEN  =     72997.72182899
  -Hartree energ DENC   =    -85232.38465989
  -exchange      EXHF   =         0.00000000
  -V(xc)+E(xc)   XCENC  =        46.84694246
  PAW double counting   =     11171.21661038   -10711.84633960
  entropy T*S    EENTRO =        -0.02325635
  eigenvalues    EBANDS =      -414.38476615
  atomic energy  EATOM  =     11693.69420960
  Solvation  Ediel_sol  =         0.00000000
  ---------------------------------------------------
  free energy    TOTEN  =       -98.33483462 eV

  energy without entropy =      -98.31157828  energy(sigma->0) =      -98.32708251


--------------------------------------------------------------------------------------------------------




--------------------------------------- Iteration      1(   6)  ---------------------------------------


    POTLOK:  cpu time    0.0192: real time    0.0195
    SETDIJ:  cpu time    0.0023: real time    0.0023
     EDDAV:  cpu time    6.6048: real time    6.6050
       DOS:  cpu time    0.0056: real time    0.0056
    CHARGE:  cpu time    0.3413: real time    0.3413
    MIXING:  cpu time    0.0009: real time    0.0009
    --------------------------------------------
      LOOP:  cpu time    6.9742: real time    6.9747

 eigenvalue-minimisations  : 11360
 total energy-change (2. order) : 0.3575058E+01  (-0.1984801E+01)
 number of electron     160.0000123 magnetization 
 augmentation part       49.4898769 magnetization 

 Broyden mixing:
  rms(total) = 0.32427E+01    rms(broyden)= 0.32427E+01
  rms(prec ) = 0.35016E+01
  weight for this iteration     100.00

 eigenvalues of (default mixing * dielectric matrix)
  average eigenvalue GAMMA=   1.1965
  1.1965

 Free energy of the ion-electron system (eV)
  ---------------------------------------------------
  alpha Z        PSCENC =       350.82459594
  Ewald energy   TEWEN  =     72997.72182899
  -Hartree energ DENC   =    -85051.42499573
  -exchange      EXHF   =         0.00000000
  -V(xc)+E(xc)   XCENC  =        42.71949149
  PAW double counting   =     12376.44082722   -11940.66313815
  entropy T*S    EENTRO =        -0.02150114
  eigenvalues    EBANDS =      -564.05109528
  atomic energy  EATOM  =     11693.69420960
  Solvation  Ediel_sol  =         0.00000000
  ---------------------------------------------------
  free energy    TOTEN  =       -94.75977706 eV

  energy without entropy =      -94.73827592  energy(sigma->0) =      -94.75261001


--------------------------------------------------------------------------------------------------------




--------------------------------------- Iteration      1(   7)  ---------------------------------------


    POTLOK:  cpu time    0.0178: real time    0.0178
    SETDIJ:  cpu time    0.0023: real time    0.0023
     EDDAV:  cpu time    8.3436: real time    8.3439
       DOS:  cpu time    0.0053: real time    0.0053
    CHARGE:  cpu time    0.3436: real time    0.3436
    MIXING:  cpu time    0.0012: real time    0.0012
    --------------------------------------------
      LOOP:  cpu time    8.7137: real time    8.7140

 eigenvalue-minimisations  : 15200
 total energy-change (2. order) :-0.4323429E+02  (-0.1267527E+02)
 number of electron     160.0000148 magnetization 
 augmentation part       47.7582443 magnetization 

 Broyden mixing:
  rms(total) = 0.55084E+01    rms(broyden)= 0.55083E+01
  rms(prec ) = 0.70314E+01
  weight for this iteration     100.00

 eigenvalues of (default mixing * dielectric matrix)
  average eigenvalue GAMMA=   1.0228
  1.8617  0.1839

 Free energy of the ion-electron system (eV)
  ---------------------------------------------------
  alpha Z        PSCENC =       350.82459594
  Ewald energy   TEWEN  =     72997.72182899
  -Hartree energ DENC   =    -85155.69168746
  -exchange      EXHF   =         0.00000000
  -V(xc)+E(xc)   XCENC  =        41.64915730
  PAW double counting   =     13088.43825852   -12661.36323686
  entropy T*S    EENTRO =        -0.02315312
  eigenvalues    EBANDS =      -493.24403714
  atomic energy  EATOM  =     11693.69420960
  Solvation  Ediel_sol  =         0.00000000
  ---------------------------------------------------
  free energy    TOTEN  =      -137.99406423 eV

  energy without entropy =     -137.97091110  energy(sigma->0) =     -137.98634652


--------------------------------------------------------------------------------------------------------




--------------------------------------- Iteration      1(   8)  ---------------------------------------


    POTLOK:  cpu time    0.0186: real time    0.0189
    SETDIJ:  cpu time    0.0024: real time    0.0024
     EDDAV:  cpu time    7.9575: real time    7.9578
       DOS:  cpu time    0.0056: real time    0.0056
    CHARGE:  cpu time    0.3399: real time    0.3399
    MIXING:  cpu time    0.0012: real time    0.0012
    --------------------------------------------
      LOOP:  cpu time    8.3252: real time    8.3257

 eigenvalue-minimisations  : 14312
 total energy-change (2. order) : 0.1944205E+02  (-0.5102809E+01)
 number of electron     160.0000165 magnetization 
 augmentation part       49.1799699 magnetization 

 Broyden mixing:
  rms(total) = 0.43254E+01    rms(broyden)= 0.43253E+01
  rms(prec ) = 0.49856E+01
  weight for this iteration     100.00

 eigenvalues of (default mixing * dielectric matrix)
  average eigenvalue GAMMA=   0.8787
  2.1769  0.2296  0.2296

 Free energy of the ion-electron system (eV)
  ---------------------------------------------------
  alpha Z        PSCENC =       350.82459594
  Ewald energy   TEWEN  =     72997.72182899
  -Hartree energ DENC   =    -85160.26657764
  -exchange      EXHF   =         0.00000000
  -V(xc)+E(xc)   XCENC  =        40.60831020
  PAW double counting   =     13880.38954524   -13463.76978294
  entropy T*S    EENTRO =        -0.00004365
  eigenvalues    EBANDS =      -457.75410342
  atomic energy  EATOM  =     11693.69420960
  Solvation  Ediel_sol  =         0.00000000
  ---------------------------------------------------
  free energy    TOTEN  =      -118.55201767 eV

  energy without entropy =     -118.55197402  energy(sigma->0) =     -118.55200312


--------------------------------------------------------------------------------------------------------




--------------------------------------- Iteration      1(   9)  ---------------------------------------


    POTLOK:  cpu time    0.0188: real time    0.0206
    SETDIJ:  cpu time    0.0024: real time    0.0024
     EDDAV:  cpu time    8.9098: real time    8.9100
       DOS:  cpu time    0.0057: real time    0.0057
    CHARGE:  cpu time    0.3383: real time    0.3383
    MIXING:  cpu time    0.0010: real time    0.0010
    --------------------------------------------
      LOOP:  cpu time    9.2759: real time    9.2780

 eigenvalue-minimisations  : 16400
 total energy-change (2. order) : 0.1116279E+02  (-0.4365745E+01)
 number of electron     160.0000148 magnetization 
 augmentation part       50.0209039 magnetization 

 Broyden mixing:
  rms(total) = 0.29460E+01    rms(broyden)= 0.29459E+01
  rms(prec ) = 0.40431E+01
  weight for this iteration     100.00

 eigenvalues of (default mixing * dielectric matrix)
  average eigenvalue GAMMA=   0.8370
  2.1663  0.6691  0.3556  0.1571

 Free energy of the ion-electron system (eV)
  ---------------------------------------------------
  alpha Z        PSCENC =       350.82459594
  Ewald energy   TEWEN  =     72997.72182899
  -Hartree energ DENC   =    -85026.21872534
  -exchange      EXHF   =         0.00000000
  -V(xc)+E(xc)   XCENC  =        40.15883688
  PAW double counting   =     14334.29112326   -13923.29353257
  entropy T*S    EENTRO =        -0.01233067
  eigenvalues    EBANDS =      -574.55523679
  atomic energy  EATOM  =     11693.69420960
  Solvation  Ediel_sol  =         0.00000000
  ---------------------------------------------------
  free energy    TOTEN  =      -107.38923069 eV

  energy without entropy =     -107.37690002  energy(sigma->0) =     -107.38512047


--------------------------------------------------------------------------------------------------------




--------------------------------------- Iteration      1(  10)  ---------------------------------------


    POTLOK:  cpu time    0.0184: real time    0.0210
    SETDIJ:  cpu time    0.0023: real time    0.0023
     EDDAV:  cpu time    7.5046: real time    7.5048
       DOS:  cpu time    0.0056: real time    0.0056
    CHARGE:  cpu time    0.3507: real time    0.3507
    MIXING:  cpu time    0.0012: real time    0.0012
    --------------------------------------------
      LOOP:  cpu time    7.8828: real time    7.8857

 eigenvalue-minimisations  : 13344
 total energy-change (2. order) : 0.1373127E+02  (-0.2499564E+01)
 number of electron     160.0000148 magnetization 
 augmentation part       50.3469740 magnetization 

 Broyden mixing:
  rms(total) = 0.12866E+01    rms(broyden)= 0.12865E+01
  rms(prec ) = 0.14748E+01
  weight for this iteration     100.00

 eigenvalues of (default mixing * dielectric matrix)
  average eigenvalue GAMMA=   0.7275
  2.0993  0.5489  0.5489  0.2819  0.1586

 Free energy of the ion-electron system (eV)
  ---------------------------------------------------
  alpha Z        PSCENC =       350.82459594
  Ewald energy   TEWEN  =     72997.72182899
  -Hartree energ DENC   =    -85052.20949619
  -exchange      EXHF   =         0.00000000
  -V(xc)+E(xc)   XCENC  =        40.88066313
  PAW double counting   =     14504.32635997   -14091.60678009
  entropy T*S    EENTRO =        -0.02315133
  eigenvalues    EBANDS =      -537.26618670
  atomic energy  EATOM  =     11693.69420960
  Solvation  Ediel_sol  =         0.00000000
  ---------------------------------------------------
  free energy    TOTEN  =       -93.65795667 eV

  energy without entropy =      -93.63480534  energy(sigma->0) =      -93.65023956


--------------------------------------------------------------------------------------------------------




--------------------------------------- Iteration      1(  11)  ---------------------------------------


    POTLOK:  cpu time    0.0185: real time    0.0185
    SETDIJ:  cpu time    0.0023: real time    0.0023
     EDDAV:  cpu time    8.1173: real time    8.1176
       DOS:  cpu time    0.0057: real time    0.0057
    CHARGE:  cpu time    0.3574: real time    0.3575
    MIXING:  cpu time    0.0012: real time    0.0012
    --------------------------------------------
      LOOP:  cpu time    8.5025: real time    8.5028

 eigenvalue-minimisations  : 14656
 total energy-change (2. order) : 0.1377195E+01  (-0.9594352E+00)
 number of electron     160.0000137 magnetization 
 augmentation part       50.1744928 magnetization 

 Broyden mixing:
  rms(total) = 0.74221E+00    rms(broyden)= 0.74202E+00
  rms(prec ) = 0.79574E+00
  weight for this iteration     100.00

 eigenvalues of (default mixing * dielectric matrix)
  average eigenvalue GAMMA=   0.7096
  2.0815  0.6882  0.6882  0.4113  0.1617  0.2266

 Free energy of the ion-electron system (eV)
  ---------------------------------------------------
  alpha Z        PSCENC =       350.82459594
  Ewald energy   TEWEN  =     72997.72182899
  -Hartree energ DENC   =    -85046.80410540
  -exchange      EXHF   =         0.00000000
  -V(xc)+E(xc)   XCENC  =        40.91724976
  PAW double counting   =     14507.51002606   -14094.18269621
  entropy T*S    EENTRO =        -0.01872960
  eigenvalues    EBANDS =      -541.94314059
  atomic energy  EATOM  =     11693.69420960
  Solvation  Ediel_sol  =         0.00000000
  ---------------------------------------------------
  free energy    TOTEN  =       -92.28076144 eV

  energy without entropy =      -92.26203184  energy(sigma->0) =      -92.27451824


--------------------------------------------------------------------------------------------------------




--------------------------------------- Iteration      1(  12)  ---------------------------------------


    POTLOK:  cpu time    0.0187: real time    0.0189
    SETDIJ:  cpu time    0.0023: real time    0.0023
     EDDAV:  cpu time    6.9713: real time    6.9715
       DOS:  cpu time    0.0058: real time    0.0058
    CHARGE:  cpu time    0.3617: real time    0.3617
    MIXING:  cpu time    0.0014: real time    0.0014
    --------------------------------------------
      LOOP:  cpu time    7.3612: real time    7.3615

 eigenvalue-minimisations  : 12136
 total energy-change (2. order) : 0.5417994E-01  (-0.8771498E-01)
 number of electron     160.0000137 magnetization 
 augmentation part       50.1539194 magnetization 

 Broyden mixing:
  rms(total) = 0.55785E+00    rms(broyden)= 0.55784E+00
  rms(prec ) = 0.67513E+00
  weight for this iteration     100.00

 eigenvalues of (default mixing * dielectric matrix)
  average eigenvalue GAMMA=   0.7126
  2.0766  0.6911  0.6911  0.7860  0.1599  0.3312  0.2526

 Free energy of the ion-electron system (eV)
  ---------------------------------------------------
  alpha Z        PSCENC =       350.82459594
  Ewald energy   TEWEN  =     72997.72182899
  -Hartree energ DENC   =    -85043.93967121
  -exchange      EXHF   =         0.00000000
  -V(xc)+E(xc)   XCENC  =        40.96899803
  PAW double counting   =     14494.64718412   -14081.28245921
  entropy T*S    EENTRO =        -0.03359185
  eigenvalues    EBANDS =      -544.82767591
  atomic energy  EATOM  =     11693.69420960
  Solvation  Ediel_sol  =         0.00000000
  ---------------------------------------------------
  free energy    TOTEN  =       -92.22658151 eV

  energy without entropy =      -92.19298966  energy(sigma->0) =      -92.21538422


--------------------------------------------------------------------------------------------------------




--------------------------------------- Iteration      1(  13)  ---------------------------------------


    POTLOK:  cpu time    0.0189: real time    0.0206
    SETDIJ:  cpu time    0.0023: real time    0.0023
     EDDAV:  cpu time    6.9767: real time    6.9769
       DOS:  cpu time    0.0057: real time    0.0057
    CHARGE:  cpu time    0.3568: real time    0.3568
    MIXING:  cpu time    0.0012: real time    0.0012
    --------------------------------------------
      LOOP:  cpu time    7.3617: real time    7.3637

 eigenvalue-minimisations  : 12136
 total energy-change (2. order) : 0.6214874E-01  (-0.8853864E-01)
 number of electron     160.0000139 magnetization 
 augmentation part       50.1504804 magnetization 

 Broyden mixing:
  rms(total) = 0.40101E+00    rms(broyden)= 0.40098E+00
  rms(prec ) = 0.44779E+00
  weight for this iteration     100.00

 eigenvalues of (default mixing * dielectric matrix)
  average eigenvalue GAMMA=   0.7388
  2.0206  1.0611  1.0611  0.6156  0.4702  0.1598  0.2714  0.2502

 Free energy of the ion-electron system (eV)
  ---------------------------------------------------
  alpha Z        PSCENC =       350.82459594
  Ewald energy   TEWEN  =     72997.72182899
  -Hartree energ DENC   =    -85043.70749230
  -exchange      EXHF   =         0.00000000
  -V(xc)+E(xc)   XCENC  =        40.97371320
  PAW double counting   =     14457.08212530   -14043.81310763
  entropy T*S    EENTRO =        -0.02687897
  eigenvalues    EBANDS =      -544.91342689
  atomic energy  EATOM  =     11693.69420960
  Solvation  Ediel_sol  =         0.00000000
  ---------------------------------------------------
  free energy    TOTEN  =       -92.16443276 eV

  energy without entropy =      -92.13755379  energy(sigma->0) =      -92.15547310


--------------------------------------------------------------------------------------------------------




--------------------------------------- Iteration      1(  14)  ---------------------------------------


    POTLOK:  cpu time    0.0181: real time    0.0181
    SETDIJ:  cpu time    0.0023: real time    0.0023
     EDDAV:  cpu time    7.5114: real time    7.5116
       DOS:  cpu time    0.0057: real time    0.0057
    CHARGE:  cpu time    0.3541: real time    0.3541
    MIXING:  cpu time    0.0013: real time    0.0013
    --------------------------------------------
      LOOP:  cpu time    7.8930: real time    7.8932

 eigenvalue-minimisations  : 13328
 total energy-change (2. order) :-0.1688696E-01  (-0.1668178E-01)
 number of electron     160.0000140 magnetization 
 augmentation part       50.1185036 magnetization 

 Broyden mixing:
  rms(total) = 0.37568E+00    rms(broyden)= 0.37567E+00
  rms(prec ) = 0.50131E+00
  weight for this iteration     100.00

 eigenvalues of (default mixing * dielectric matrix)
  average eigenvalue GAMMA=   0.7440
  1.9899  1.2947  1.2947  0.5224  0.5224  0.1599  0.2485  0.3464  0.3166

 Free energy of the ion-electron system (eV)
  ---------------------------------------------------
  alpha Z        PSCENC =       350.82459594
  Ewald energy   TEWEN  =     72997.72182899
  -Hartree energ DENC   =    -85045.99728618
  -exchange      EXHF   =         0.00000000
  -V(xc)+E(xc)   XCENC  =        41.03106993
  PAW double counting   =     14382.95159994   -13969.41662486
  entropy T*S    EENTRO =        -0.03491101
  eigenvalues    EBANDS =      -542.95580207
  atomic energy  EATOM  =     11693.69420960
  Solvation  Ediel_sol  =         0.00000000
  ---------------------------------------------------
  free energy    TOTEN  =       -92.18131972 eV

  energy without entropy =      -92.14640871  energy(sigma->0) =      -92.16968272


--------------------------------------------------------------------------------------------------------




--------------------------------------- Iteration      1(  15)  ---------------------------------------


    POTLOK:  cpu time    0.0181: real time    0.0181
    SETDIJ:  cpu time    0.0023: real time    0.0023
     EDDAV:  cpu time    7.8369: real time    7.8371
       DOS:  cpu time    0.0058: real time    0.0058
    CHARGE:  cpu time    0.3574: real time    0.3574
    MIXING:  cpu time    0.0013: real time    0.0013
    --------------------------------------------
      LOOP:  cpu time    8.2218: real time    8.2220

 eigenvalue-minimisations  : 14040
 total energy-change (2. order) : 0.8821109E-01  (-0.1308454E-01)
 number of electron     160.0000138 magnetization 
 augmentation part       50.1031008 magnetization 

 Broyden mixing:
  rms(total) = 0.17533E+00    rms(broyden)= 0.17532E+00
  rms(prec ) = 0.19970E+00
  weight for this iteration     100.00

 eigenvalues of (default mixing * dielectric matrix)
  average eigenvalue GAMMA=   0.8524
  2.3362  1.6310  1.6310  0.6070  0.6070  0.6604  0.1599  0.3440  0.2479  0.3000

 Free energy of the ion-electron system (eV)
  ---------------------------------------------------
  alpha Z        PSCENC =       350.82459594
  Ewald energy   TEWEN  =     72997.72182899
  -Hartree energ DENC   =    -85048.38261718
  -exchange      EXHF   =         0.00000000
  -V(xc)+E(xc)   XCENC  =        41.09079208
  PAW double counting   =     14340.19659192   -13926.43844682
  entropy T*S    EENTRO =        -0.03600660
  eigenvalues    EBANDS =      -540.76405656
  atomic energy  EATOM  =     11693.69420960
  Solvation  Ediel_sol  =         0.00000000
  ---------------------------------------------------
  free energy    TOTEN  =       -92.09310864 eV

  energy without entropy =      -92.05710204  energy(sigma->0) =      -92.08110644


--------------------------------------------------------------------------------------------------------




--------------------------------------- Iteration      1(  16)  ---------------------------------------


    POTLOK:  cpu time    0.0182: real time    0.0182
    SETDIJ:  cpu time    0.0023: real time    0.0023
     EDDAV:  cpu time    6.8493: real time    6.8495
       DOS:  cpu time    0.0056: real time    0.0056
    CHARGE:  cpu time    0.3545: real time    0.3545
    MIXING:  cpu time    0.0017: real time    0.0017
    --------------------------------------------
      LOOP:  cpu time    7.2316: real time    7.2318

 eigenvalue-minimisations  : 11872
 total energy-change (2. order) : 0.2759331E-02  (-0.8375810E-02)
 number of electron     160.0000138 magnetization 
 augmentation part       50.0700712 magnetization 

 Broyden mixing:
  rms(total) = 0.10670E+00    rms(broyden)= 0.10668E+00
  rms(prec ) = 0.11894E+00
  weight for this iteration     100.00

 eigenvalues of (default mixing * dielectric matrix)
  average eigenvalue GAMMA=   0.8038
  1.9708  1.9708  1.5144  0.7217  0.6141  0.6141  0.4380  0.1599  0.2476  0.2955
  0.2955

 Free energy of the ion-electron system (eV)
  ---------------------------------------------------
  alpha Z        PSCENC =       350.82459594
  Ewald energy   TEWEN  =     72997.72182899
  -Hartree energ DENC   =    -85055.18232207
  -exchange      EXHF   =         0.00000000
  -V(xc)+E(xc)   XCENC  =        41.14556788
  PAW double counting   =     14289.05006332   -13875.21892276
  entropy T*S    EENTRO =        -0.04084952
  eigenvalues    EBANDS =      -534.08452068
  atomic energy  EATOM  =     11693.69420960
  Solvation  Ediel_sol  =         0.00000000
  ---------------------------------------------------
  free energy    TOTEN  =       -92.09034931 eV

  energy without entropy =      -92.04949978  energy(sigma->0) =      -92.07673280


--------------------------------------------------------------------------------------------------------




--------------------------------------- Iteration      1(  17)  ---------------------------------------


    POTLOK:  cpu time    0.0193: real time    0.0210
    SETDIJ:  cpu time    0.0023: real time    0.0023
     EDDAV:  cpu time    6.6817: real time    6.6821
       DOS:  cpu time    0.0058: real time    0.0058
    CHARGE:  cpu time    0.3537: real time    0.3538
    MIXING:  cpu time    0.0016: real time    0.0015
    --------------------------------------------
      LOOP:  cpu time    7.0644: real time    7.0666

 eigenvalue-minimisations  : 11504
 total energy-change (2. order) : 0.9179814E-02  (-0.2721749E-02)
 number of electron     160.0000138 magnetization 
 augmentation part       50.0590022 magnetization 

 Broyden mixing:
  rms(total) = 0.53054E-01    rms(broyden)= 0.53048E-01
  rms(prec ) = 0.58175E-01
  weight for this iteration     100.00

 eigenvalues of (default mixing * dielectric matrix)
  average eigenvalue GAMMA=   0.7860
  2.0533  2.0533  1.3957  0.7051  0.7051  0.5997  0.5997  0.1599  0.2474  0.3175
  0.3175  0.2777

 Free energy of the ion-electron system (eV)
  ---------------------------------------------------
  alpha Z        PSCENC =       350.82459594
  Ewald energy   TEWEN  =     72997.72182899
  -Hartree energ DENC   =    -85056.47863805
  -exchange      EXHF   =         0.00000000
  -V(xc)+E(xc)   XCENC  =        41.16367917
  PAW double counting   =     14285.35890632   -13871.41478233
  entropy T*S    EENTRO =        -0.03700431
  eigenvalues    EBANDS =      -532.91396482
  atomic energy  EATOM  =     11693.69420960
  Solvation  Ediel_sol  =         0.00000000
  ---------------------------------------------------
  free energy    TOTEN  =       -92.08116949 eV

  energy without entropy =      -92.04416518  energy(sigma->0) =      -92.06883472


--------------------------------------------------------------------------------------------------------




--------------------------------------- Iteration      1(  18)  ---------------------------------------


    POTLOK:  cpu time    0.0184: real time    0.0217
    SETDIJ:  cpu time    0.0023: real time    0.0023
     EDDAV:  cpu time    6.4671: real time    6.4673
       DOS:  cpu time    0.0057: real time    0.0057
    CHARGE:  cpu time    0.3544: real time    0.3545
    MIXING:  cpu time    0.0017: real time    0.0017
    --------------------------------------------
      LOOP:  cpu time    6.8496: real time    6.8531

 eigenvalue-minimisations  : 11024
 total energy-change (2. order) : 0.4632165E-03  (-0.3413303E-03)
 number of electron     160.0000138 magnetization 
 augmentation part       50.0545391 magnetization 

 Broyden mixing:
  rms(total) = 0.45876E-01    rms(broyden)= 0.45876E-01
  rms(prec ) = 0.61021E-01
  weight for this iteration     100.00

 eigenvalues of (default mixing * dielectric matrix)
  average eigenvalue GAMMA=   0.8257
  1.9828  1.9828  1.7221  0.9828  0.9828  0.5807  0.5807  0.5859  0.1599  0.3539
  0.2471  0.2866  0.2866

 Free energy of the ion-electron system (eV)
  ---------------------------------------------------
  alpha Z        PSCENC =       350.82459594
  Ewald energy   TEWEN  =     72997.72182899
  -Hartree energ DENC   =    -85057.28696875
  -exchange      EXHF   =         0.00000000
  -V(xc)+E(xc)   XCENC  =        41.17454546
  PAW double counting   =     14287.73869897   -13873.73367267
  entropy T*S    EENTRO =        -0.03756918
  eigenvalues    EBANDS =      -532.17637465
  atomic energy  EATOM  =     11693.69420960
  Solvation  Ediel_sol  =         0.00000000
  ---------------------------------------------------
  free energy    TOTEN  =       -92.08070628 eV

  energy without entropy =      -92.04313710  energy(sigma->0) =      -92.06818322


--------------------------------------------------------------------------------------------------------




[...]
     80      -0.0454      1.11524
     81       0.0127      0.63440
     82       0.0551      0.33645
     83       0.1285      0.01941
     84       0.2940     -0.04351
     85       0.3136     -0.03480
     86       0.4323     -0.00498
     87       1.9562     -0.00000
     88       1.9824     -0.00000
     89       2.0609     -0.00000
     90       2.5368     -0.00000
     91       2.5627     -0.00000
     92       2.5879     -0.00000
     93       3.6565     -0.00000
     94       3.6674     -0.00000
     95       4.0695     -0.00000
     96       5.1579     -0.00000

 k-point    51 :      -0.4375    0.4375    0.0000
  band No.  band energies     occupation 
      1      -7.6139      2.00000
      2      -7.5882      2.00000
      3      -6.6337      2.00000
      4      -6.5677      2.00000
      5      -6.1299      2.00000
      6      -5.8705      2.00000
      7      -5.8356      2.00000
      8      -5.7673      2.00000
      9      -5.6554      2.00000
     10      -5.5780      2.00000
     11      -5.5253      2.00000
     12      -5.4496      2.00000
     13      -5.4312      2.00000
     14      -5.2549      2.00000
     15      -5.0885      2.00000
     16      -5.0200      2.00000
     17      -5.0022      2.00000
     18      -4.9658      2.00000
     19      -4.8553      2.00000
     20      -4.8076      2.00000
     21      -4.6218      2.00000
     22      -4.6126      2.00000
     23      -4.5589      2.00000
     24      -4.5296      2.00000
     25      -4.4782      2.00000
     26      -4.4096      2.00000
     27      -4.3583      2.00000
     28      -4.3204      2.00000
     29      -4.0764      2.00000
     30      -4.0019      2.00000
     31      -3.9412      2.00000
     32      -3.8744      2.00000
     33      -3.8429      2.00000
     34      -3.7408      2.00000
     35      -3.7089      2.00000
     36      -3.6021      2.00000
     37      -3.5141      2.00000
     38      -3.4346      2.00000
     39      -3.3787      2.00000
     40      -3.3674      2.00000
     41      -3.3294      2.00000
     42      -3.1907      2.00000
     43      -3.0973      2.00000
     44      -3.0172      2.00000
     45      -2.9995      2.00000
     46      -2.9606      2.00000
     47      -2.9095      2.00000
     48      -2.8772      2.00000
     49      -2.8251      2.00000
     50      -2.7571      2.00000
     51      -2.6274      2.00000
     52      -2.5841      2.00000
     53      -2.4394      2.00000
     54      -2.2517      2.00000
     55      -2.2131      2.00000
     56      -2.1533      2.00000
     57      -2.1155      2.00000
     58      -2.0897      2.00000
     59      -1.9537      2.00000
     60      -1.8535      2.00000
     61      -1.7781      2.00000
     62      -1.7148      2.00000
     63      -1.6425      2.00000
     64      -1.5655      2.00000
     65      -1.4738      2.00000
     66      -1.4384      2.00000
     67      -1.3645      2.00000
     68      -1.2786      2.00000
     69      -1.2063      2.00000
     70      -1.1381      2.00000
     71      -1.1165      2.00000
     72      -1.0402      2.00000
     73      -0.9381      2.00000
     74      -0.8145      2.00000
     75      -0.6897      2.00003
     76      -0.5848      2.00065
     77      -0.5167      2.00322
     78      -0.3131      2.06303
     79      -0.1905      1.97684
     80      -0.1208      1.67703
     81      -0.0819      1.41025
     82       0.0185      0.58914
     83       0.0946      0.13270
     84       0.1948     -0.06795
     85       0.3549     -0.01973
     86       0.3809     -0.01297
     87       1.0046     -0.00000
     88       1.2628     -0.00000
     89       2.2432     -0.00000
     90       2.3176     -0.00000
     91       2.4145     -0.00000
     92       3.1592     -0.00000
     93       3.9422     -0.00000
     94       4.2469     -0.00000
     95       4.7354     -0.00000
     96       4.7923     -0.00000

 k-point    52 :       0.1250   -0.4375    0.0000
  band No.  band energies     occupation 
      1      -7.6102      2.00000
      2      -7.5916      2.00000
      3      -6.6279      2.00000
      4      -6.5746      2.00000
      5      -6.1293      2.00000
      6      -5.8706      2.00000
      7      -5.8313      2.00000
      8      -5.7612      2.00000
      9      -5.6580      2.00000
     10      -5.5775      2.00000
     11      -5.5401      2.00000
     12      -5.4478      2.00000
     13      -5.4239      2.00000
     14      -5.2580      2.00000
     15      -5.0871      2.00000
     16      -5.0171      2.00000
     17      -5.0049      2.00000
     18      -4.9626      2.00000
     19      -4.8674      2.00000
     20      -4.8049      2.00000
     21      -4.6203      2.00000
     22      -4.6095      2.00000
     23      -4.5729      2.00000
     24      -4.5237      2.00000
     25      -4.4753      2.00000
     26      -4.3913      2.00000
     27      -4.3723      2.00000
     28      -4.3071      2.00000
     29      -4.1061      2.00000
     30      -3.9996      2.00000
     31      -3.9367      2.00000
     32      -3.8754      2.00000
     33      -3.8391      2.00000
     34      -3.7326      2.00000
     35      -3.7030      2.00000
     36      -3.5931      2.00000
     37      -3.5299      2.00000
     38      -3.4426      2.00000
     39      -3.3723      2.00000
     40      -3.3643      2.00000
     41      -3.3183      2.00000
     42      -3.1904      2.00000
     43      -3.1026      2.00000
     44      -3.0388      2.00000
     45      -2.9945      2.00000
     46      -2.9408      2.00000
     47      -2.9209      2.00000
     48      -2.8682      2.00000
     49      -2.8263      2.00000
     50      -2.7843      2.00000
     51      -2.6356      2.00000
     52      -2.5519      2.00000
     53      -2.4060      2.00000
     54      -2.2571      2.00000
     55      -2.2275      2.00000
     56      -2.1594      2.00000
     57      -2.1420      2.00000
     58      -2.0850      2.00000
     59      -1.9538      2.00000
     60      -1.8509      2.00000
     61      -1.7744      2.00000
     62      -1.7151      2.00000
     63      -1.6515      2.00000
     64      -1.5484      2.00000
     65      -1.4607      2.00000
     66      -1.4186      2.00000
     67      -1.3665      2.00000
     68      -1.3006      2.00000
     69      -1.2219      2.00000
     70      -1.1570      2.00000
     71      -1.1097      2.00000
     72      -1.0305      2.00000
     73      -0.9430      2.00000
     74      -0.8555      2.00000
     75      -0.6735      2.00006
     76      -0.5080      2.00387
     77      -0.4846      2.00622
     78      -0.3861      2.03109
     79      -0.2113      2.02199
     80      -0.1119      1.62159
     81      -0.0735      1.34500
     82      -0.0053      0.77835
     83       0.1423     -0.01187
     84       0.1722     -0.05413
     85       0.3367     -0.02571
     86       0.4015     -0.00901
     87       1.0050     -0.00000
     88       1.2626     -0.00000
     89       2.2373     -0.00000
     90       2.3510     -0.00000
     91       2.3859     -0.00000
     92       3.1545     -0.00000
     93       3.9578     -0.00000
     94       4.2340     -0.00000
     95       4.7410     -0.00000
     96       4.7886     -0.00000


--------------------------------------------------------------------------------------------------------


 soft charge-density along one line, spin component           1
         0         1         2         3         4         5         6         7         8         9
 total charge-density along one line
 
 pseudopotential strength for first ion, spin component:           1
 -7.752   0.000   0.000  -0.006   0.000  -7.905   0.000   0.000
  0.000  -7.668  -0.000   0.000  -0.004   0.000  -7.823  -0.000
  0.000  -0.000  -7.659  -0.000   0.000   0.000  -0.000  -7.814
 -0.006   0.000  -0.000  -7.668  -0.000  -0.006   0.000  -0.000
  0.000  -0.004   0.000  -0.000  -7.752   0.000  -0.004   0.000
 -7.905   0.000   0.000  -0.006   0.000  -8.041   0.000   0.000
  0.000  -7.823  -0.000   0.000  -0.004   0.000  -7.961  -0.000
  0.000  -0.000  -7.814  -0.000   0.000   0.000  -0.000  -7.952
 -0.006   0.000  -0.000  -7.823  -0.000  -0.006   0.000  -0.000
  0.000  -0.004   0.000  -0.000  -7.905   0.000  -0.004   0.000
  0.000   0.000  -0.026  -0.000   0.000   0.000   0.000  -0.026
  0.000   0.001  -0.038  -0.000   0.000   0.000   0.001  -0.038
  0.000   0.000   0.000   0.000  -0.000   0.000  -0.000   0.000
  0.000   0.000   0.002  -0.000   0.000   0.000   0.000   0.002
 -0.000   0.000  -0.000   0.000  -0.000  -0.000   0.000  -0.000
  0.000  -0.001   0.000   0.000  -0.000   0.000  -0.002   0.000
  0.000  -0.000   0.001  -0.000   0.000   0.000  -0.000   0.000
 -0.001   0.000  -0.000  -0.001  -0.000  -0.001   0.000  -0.000
 total augmentation occupancy for first ion, spin component:           1
  4.783   0.000   0.000  -0.031   0.000  -2.976   0.000   0.000  -0.052   0.000   0.000   0.000   0.000   0.000   0.048   0.000
  0.000   4.903   0.009   0.000   0.002   0.000  -2.602  -0.006   0.000  -0.075  -0.003  -0.002   0.218   0.000   0.000  -0.012
  0.000   0.009   5.475   0.000  -0.001   0.000  -0.006  -3.283   0.000   0.001   0.887  -0.076   0.003   0.373   0.000   0.000
 -0.031   0.000   0.000   4.902   0.000  -0.050   0.000   0.000  -2.601   0.000   0.000   0.000   0.000   0.000   0.219   0.000
  0.000   0.002  -0.001   0.000   4.777   0.000  -0.077   0.001   0.000  -2.972  -0.002  -0.002   0.048  -0.001   0.000  -0.002
 -2.976   0.000   0.000  -0.050   0.000   3.025   0.000   0.000   0.112   0.000   0.000   0.000   0.000   0.000  -0.045   0.000
  0.000  -2.602  -0.006   0.000  -0.077   0.000   2.266   0.004   0.000   0.132   0.001   0.002  -0.202  -0.000   0.000   0.009
  0.000  -0.006  -3.283   0.000   0.001   0.000   0.004   3.036   0.000  -0.001  -0.809   0.086  -0.002  -0.371   0.000   0.000
 -0.052   0.000   0.000  -2.601   0.000   0.112   0.000   0.000   2.264   0.000   0.000   0.000   0.000   0.000  -0.202   0.000
  0.000  -0.075   0.001   0.000  -2.972   0.000   0.132  -0.001   0.000   3.022   0.001   0.002  -0.045   0.001   0.000   0.001
  0.000  -0.003   0.887   0.000  -0.002   0.000   0.001  -0.809   0.000   0.001   2.544  -0.576   0.000  -0.164   0.000  -0.000
  0.000  -0.002  -0.076   0.000  -0.002   0.000   0.002   0.086   0.000   0.002  -0.576   0.171  -0.000   0.076   0.000   0.000
  0.000   0.218   0.003   0.000   0.048   0.000  -0.202  -0.002   0.000  -0.045   0.000  -0.000   0.237   0.001   0.000  -0.007
  0.000   0.000   0.373   0.000  -0.001   0.000  -0.000  -0.371   0.000   0.001  -0.164   0.076   0.001   0.131   0.000  -0.000
  0.048   0.000   0.000   0.219   0.000  -0.045   0.000   0.000  -0.202   0.000   0.000   0.000   0.000   0.000   0.237   0.000
  0.000  -0.012   0.000   0.000  -0.002   0.000   0.009   0.000   0.000   0.001  -0.000   0.000  -0.007  -0.000   0.000   0.000
  0.000   0.000  -0.009   0.000   0.000   0.000  -0.000   0.011   0.000  -0.000   0.008  -0.003  -0.000  -0.004   0.000  -0.000
 -0.002   0.000   0.000  -0.012   0.000   0.001   0.000   0.000   0.009   0.000   0.000   0.000   0.000   0.000  -0.007   0.000


------------------------ aborting loop because EDIFF is reached ----------------------------------------



 DIPCOR: dipole corrections for dipol
 direction  3 min pos   249,
 dipolmoment           0.000000      0.000000     -0.014275 electrons x Angstroem
 Tr[quadrupol]      -938.634955

 energy correction for charged system         0.000000 eV
 dipol+quadrupol energy correction            0.000026 eV
 added-field ion interaction          0.000000 eV  (added to PSCEN)

 
  *************** adding dipol energy to TOTEN NOW **************** 
    CHARGE:  cpu time    0.3521: real time    0.3521
    FORLOC:  cpu time    0.0042: real time    0.0042
    FORNL :  cpu time    1.3561: real time    1.3561
    STRESS:  cpu time    4.0858: real time    4.0859
    FORCOR:  cpu time    0.0230: real time    0.0230
    FORHAR:  cpu time    0.0082: real time    0.0082
    MIXING:  cpu time    0.0029: real time    0.0029
    OFIELD:  cpu time    0.0000: real time    0.0000

  FORCE on cell =-STRESS in cart. coord.  units (eV):
  Direction    XX          YY          ZZ          XY          YZ          ZX
  --------------------------------------------------------------------------------------
  Alpha Z   350.82460   350.82460   350.82460
  Ewald   81914.57742 81914.58977-90831.46135    -0.00000    -0.00000    -0.00000
  Hartree 84370.92107 84370.88974-83677.22367    -0.00000     0.07891     0.00000
  E(xc)    -710.43291  -710.42454  -715.14308     0.00004    -0.01691    -0.00000
  Local  ************************171613.10865     0.00116    -0.36544    -0.00004
  n-local    63.86726    63.84937    47.57046     4.00512    -0.03159    -0.49718
  augment   834.14027   834.08087   861.36710    -0.00077     0.12670     0.00001
  Kinetic  2283.79524  2283.66025  2353.78086     2.81291     0.26464    -0.53723
  Fock        0.00000     0.00000     0.00000     0.00000     0.00000     0.00000
  -------------------------------------------------------------------------------------
  Total      -7.91074    -7.95737     2.82357     0.00000     0.05630     0.00000
  in kB     -17.77577   -17.88053     6.34468     0.00000     0.12652     0.00000
  external pressure =       -9.77 kB  Pullay stress =        0.00 kB


 VOLUME and BASIS-vectors are now :
 -----------------------------------------------------------------------------
  energy-cutoff  :      350.00
  volume of cell :      713.02
      direct lattice vectors                 reciprocal lattice vectors
     5.543717165  0.000000000  0.000000000     0.180384383 -0.104144972  0.000000000
     2.771858582  4.800999896  0.000000000     0.000000000  0.208289944  0.000000000
     0.000000000  0.000000000 26.789639166     0.000000000  0.000000000  0.037327864

  length of vectors
     5.543717165  5.543717165 26.789639166     0.208289944  0.208289944  0.037327864


 FORCES acting on ions
    electron-ion (+dipol)            ewald-force                    non-local-force                 convergence-correction
 -----------------------------------------------------------------------------------------------
   -.931E-06 0.188E-02 -.291E+04   0.101E-11 0.617E-12 0.291E+04   0.000E+00 0.158E-01 0.291E+00   -.211E-10 0.314E-03 -.128E-01
   -.217E-06 0.216E-01 0.242E+04   -.917E-12 -.603E-12 -.242E+04   0.867E-18 0.266E-01 -.236E+00   -.499E-09 -.765E-04 -.112E-01
   0.875E-06 -.367E-01 0.269E+04   -.105E-11 -.649E-12 -.269E+04   -.347E-17 0.579E-01 -.959E+00   -.440E-09 0.200E-03 -.124E-01
   0.620E-01 0.792E-02 0.269E+04   -.109E-11 -.651E-12 -.269E+04   -.556E-01 -.495E-01 -.975E+00   -.246E-03 -.591E-04 -.124E-01
   -.620E-01 0.792E-02 0.269E+04   -.106E-11 -.658E-12 -.269E+04   0.556E-01 -.495E-01 -.975E+00   0.246E-03 -.591E-04 -.124E-01
   -.526E+01 0.276E+01 0.937E+03   0.545E+01 -.288E+01 -.937E+03   -.359E-01 0.290E-01 0.128E+00   0.979E-03 -.423E-03 -.443E-01
   0.526E+01 0.276E+01 0.937E+03   -.545E+01 -.288E+01 -.937E+03   0.359E-01 0.290E-01 0.128E+00   -.979E-03 -.423E-03 -.443E-01
   0.541E-06 0.281E+00 0.932E+03   0.277E-11 -.270E+00 -.931E+03   -.108E-17 -.497E-02 0.105E+00   0.662E-09 -.140E-03 -.435E-01
   0.485E-06 -.579E+01 0.936E+03   0.331E-11 0.602E+01 -.936E+03   0.000E+00 -.524E-01 0.237E+00   0.986E-09 0.992E-03 -.445E-01
   -.101E-05 -.534E+01 -.848E+03   -.259E-11 0.546E+01 0.847E+03   -.173E-17 0.343E-01 0.518E+00   -.480E-09 -.870E-03 -.438E-01
   -.817E-06 0.310E+00 -.852E+03   -.302E-11 -.298E+00 0.852E+03   0.000E+00 -.195E-01 0.327E+00   0.144E-09 -.530E-03 -.443E-01
   0.489E+01 0.251E+01 -.847E+03   -.499E+01 -.258E+01 0.847E+03   -.368E-01 -.443E-02 0.392E+00   0.289E-03 0.702E-03 -.434E-01
   -.489E+01 0.251E+01 -.847E+03   0.499E+01 -.258E+01 0.847E+03   0.368E-01 -.443E-02 0.392E+00   -.289E-03 0.702E-03 -.434E-01
   -.814E-06 -.510E-01 -.264E+04   0.883E-12 0.550E-12 0.264E+04   0.347E-17 0.663E-01 0.943E+00   -.709E-10 -.112E-03 -.116E-01
   -.480E-01 0.186E-01 -.264E+04   0.863E-12 0.529E-12 0.264E+04   0.350E-01 -.311E-01 0.941E+00   -.333E-03 -.832E-04 -.120E-01
   0.480E-01 0.186E-01 -.264E+04   0.881E-12 0.542E-12 0.264E+04   -.350E-01 -.311E-01 0.941E+00   0.333E-03 -.832E-04 -.120E-01
 -----------------------------------------------------------------------------------------------
   -.225E-05 -.121E-01 -.174E+01   -.774E-14 -.124E-13 0.000E+00   0.139E-16 0.120E-01 0.220E+01   0.120E-08 0.526E-04 -.449E+00
 
 
 POSITION                                       TOTAL-FORCE (eV/Angst)
 -----------------------------------------------------------------------------------
      0.00000      0.00000     16.90767         0.000000      0.017977      1.058869
      2.77186      0.00000     10.00000         0.000000      0.048147      0.729610
      0.00000      0.00000     10.00000         0.000000      0.021413     -0.546293
      1.38593      2.40050     10.00000         0.006174     -0.041609     -0.563531
      4.15779      2.40050     10.00000        -0.006174     -0.041609     -0.563531
      1.38593      0.80017     12.26321         0.152384     -0.088807      0.165196
      4.15779      0.80017     12.26321        -0.152384     -0.088807      0.165196
      2.77186      3.20067     12.26321         0.000000      0.005583      0.537308
      5.54372      3.20067     12.26321         0.000000      0.182851     -0.095205
      5.54372      1.60033     14.56863        -0.000000      0.158733     -0.342610
      2.77186      1.60033     14.56863        -0.000000     -0.007748      0.129772
      6.92965      4.00083     14.56863        -0.138046     -0.078080     -0.128186
      4.15779      4.00083     14.56863         0.138046     -0.078080     -0.128186
      2.77186      0.00000     16.90767         0.000000      0.015174     -0.135859
      1.38593      2.40050     16.90767        -0.013391     -0.012569     -0.141275
      4.15779      2.40050     16.90767         0.013391     -0.012569     -0.141275
 -----------------------------------------------------------------------------------
    total drift:                               -0.000002      0.000004      0.012676


--------------------------------------------------------------------------------------------------------



  FREE ENERGIE OF THE ION-ELECTRON SYSTEM (eV)
  ---------------------------------------------------
  free  energy   TOTEN  =       -92.07866276 eV

  energy  without entropy=      -92.04092792  energy(sigma->0) =      -92.06608448
 


--------------------------------------------------------------------------------------------------------


    POTLOK:  cpu time    0.0211: real time    0.0211


--------------------------------------------------------------------------------------------------------


     LOOP+:  cpu time  221.7817: real time  221.8289
    4ORBIT:  cpu time    0.0000: real time    0.0000

 total amount of memory used by VASP MPI-rank0    94183. kBytes
=======================================================================

   base      :      30000. kBytes
   nonlr-proj:       2110. kBytes
   fftplans  :       2594. kBytes
   grid      :       4625. kBytes
   one-center:         62. kBytes
   wavefun   :      54792. kBytes
 
  
  
 General timing and accounting informations for this job:
 ========================================================
  
                  Total CPU time used (sec):      225.563
                            User time (sec):      224.894
                          System time (sec):        0.669
                         Elapsed time (sec):      225.881
  
                   Maximum memory used (kb):      129352.
                   Average memory used (kb):           0.
  
                          Minor page faults:        64017
                          Major page faults:            0
                 Voluntary context switches:          780
