 vasp.5.4.4.18Apr17-6-g9f103f2a35 (build Apr 28 2017 10:53:45) complex          
  
 executed on             LinuxIFC date 2019.07.18  16:58:54
 running on   16 total cores
 distrk:  each k-point on   16 cores,    1 groups
 distr:  one band on NCORES_PER_BAND=   4 cores,    4 groups


--------------------------------------------------------------------------------------------------------


 INCAR:
 POTCAR:    PAW_PBE Au 04Oct2007                  
 POTCAR:    PAW_PBE Ir 06Sep2000                  
 POTCAR:    PAW_PBE Pt 04Feb2005                  
 POTCAR:    PAW_PBE Au 04Oct2007                  
   VRHFIN =Au: s1d10                                                            
   LEXCH  = PE                                                                  
   EATOM  =   926.0867 eV,   68.0654 Ry                                         
                                                                                
   TITEL  = PAW_PBE Au 04Oct2007                                                
   LULTRA =        F    use ultrasoft PP ?                                      
   IUNSCR =        1    unscreen: 0-lin 1-nonlin 2-no                           
   RPACOR =    2.330    partial core radius                                     
   POMASS =  196.966; ZVAL   =   11.000    mass and valenz                      
   RCORE  =    2.500    outmost cutoff radius                                   
   RWIGS  =    2.840; RWIGS  =    1.503    wigner-seitz radius (au A)           
   ENMAX  =  229.943; ENMIN  =  172.457 eV                                      
   ICORE  =        3    local potential                                         
   LCOR   =        T    correct aug charges                                     
   LPAW   =        T    paw PP                                                  
   EAUG   =  356.670                                                            
   DEXC   =    0.000                                                            
   RMAX   =    2.562    core radius for proj-oper                               
   RAUG   =    1.300    factor for augmentation sphere                          
   RDEP   =    2.598    radius for radial grids                                 
   RDEPT  =    2.193    core radius for aug-charge                              
                                                                                
   Atomic configuration                                                         
   16 entries                                                                   
     n  l   j            E        occ.                                          
     1  0  0.50    -80748.5001   2.0000                                         
     2  0  0.50    -14244.7466   2.0000                                         
     2  1  1.50    -12310.9591   6.0000                                         
     3  0  0.50     -3362.1768   2.0000                                         
     3  1  1.50     -2801.5463   6.0000                                         
     3  2  2.50     -2203.8206  10.0000                                         
     4  0  0.50      -729.8168   2.0000                                         
     4  1  1.50      -546.0527   6.0000                                         
     4  2  2.50      -325.7302  10.0000                                         
     4  3  3.50       -81.1472  14.0000                                         
     5  0  0.50      -108.3201   2.0000                                         
     5  1  1.50       -59.7479   6.0000                                         
     5  2  2.50        -6.8783  10.0000                                         
     6  0  0.50        -5.7602   1.0000                                         
     6  1  1.50        -6.8029   0.0000                                         
     5  3  2.50        -1.3606   0.0000                                         
   Description                                                                  
     l       E           TYP  RCUT    TYP  RCUT                                 
     2     -6.8782861     23  2.500                                             
     2     -8.2388687     23  2.500                                             
     0     -5.7601759     23  2.500                                             
     0     -0.8493231     23  2.500                                             
     1     -2.7211652     23  2.500                                             
     1     27.2116520     23  2.500                                             
     3     -1.3605826     23  2.500                                             
  local pseudopotential read in
  partial core-charges read in
  partial kinetic energy density read in
  atomic valenz-charges read in
  non local Contribution for L=           2  read in
    real space projection operators read in
  non local Contribution for L=           2  read in
    real space projection operators read in
  non local Contribution for L=           0  read in
    real space projection operators read in
  non local Contribution for L=           0  read in
    real space projection operators read in
  non local Contribution for L=           1  read in
    real space projection operators read in
  non local Contribution for L=           1  read in
    real space projection operators read in
    PAW grid and wavefunctions read in
 
   number of l-projection  operators is LMAX  =           6
   number of lm-projection operators is LMMAX =          18
 
 POTCAR:    PAW_PBE Ir 06Sep2000                  
   VRHFIN =Ir: s1d8                                                             
   LEXCH  = PE                                                                  
   EATOM  =   560.1833 eV,   41.1723 Ry                                         
                                                                                
   TITEL  = PAW_PBE Ir 06Sep2000                                                
   LULTRA =        F    use ultrasoft PP ?                                      
   IUNSCR =        1    unscreen: 0-lin 1-nonlin 2-no                           
   RPACOR =    2.250    partial core radius                                     
   POMASS =  192.220; ZVAL   =    9.000    mass and valenz                      
   RCORE  =    2.600    outmost cutoff radius                                   
   RWIGS  =    2.690; RWIGS  =    1.423    wigner-seitz radius (au A)           
   ENMAX  =  210.864; ENMIN  =  158.148 eV                                      
   RCLOC  =    1.857    cutoff for local pot                                    
   LCOR   =        T    correct aug charges                                     
   LPAW   =        T    paw PP                                                  
   EAUG   =  318.962                                                            
   DEXC   =    0.000                                                            
   RMAX   =    2.667    core radius for proj-oper                               
   RAUG   =    1.300    factor for augmentation sphere                          
   RDEP   =    2.748    radius for radial grids                                 
   RDEPT  =    2.300    core radius for aug-charge                              
                                                                                
   Atomic configuration                                                         
   16 entries                                                                   
     n  l   j            E        occ.                                          
     1  0  0.50    -76100.0449   2.0000                                         
     2  0  0.50    -13308.1683   2.0000                                         
     2  1  1.50    -11558.0021   6.0000                                         
     3  0  0.50     -3110.7274   2.0000                                         
     3  1  1.50     -2599.2109   6.0000                                         
     3  2  2.50     -2037.1515  10.0000                                         
     4  0  0.50      -661.6001   2.0000                                         
     4  1  1.50      -493.8981   6.0000                                         
     4  2  2.50      -288.1909  10.0000                                         
     4  3  3.50       -59.5718  14.0000                                         
     5  0  0.50       -95.3879   2.0000                                         
     5  1  1.50       -52.2747   6.0000                                         
     5  2  2.50        -5.4180   8.0000                                         
     6  0  0.50        -5.5479   1.0000                                         
     6  1  1.50        -6.8029   0.0000                                         
     5  3  2.50        -1.3606   0.0000                                         
   Description                                                                  
     l       E           TYP  RCUT    TYP  RCUT                                 
     2     -5.4179967     23  2.600                                             
     2     -6.7785793     23  2.600                                             
     0     -5.5478636     23  2.600                                             
     0      2.2542272     23  2.600                                             
     1     -2.7211652     23  2.600                                             
     1     20.4087390     23  2.600                                             
  local pseudopotential read in
  partial core-charges read in
  partial kinetic energy density read in
  atomic valenz-charges read in
  non local Contribution for L=           2  read in
    real space projection operators read in
  non local Contribution for L=           2  read in
    real space projection operators read in
  non local Contribution for L=           0  read in
    real space projection operators read in
  non local Contribution for L=           0  read in
    real space projection operators read in
  non local Contribution for L=           1  read in
    real space projection operators read in
  non local Contribution for L=           1  read in
    real space projection operators read in
    PAW grid and wavefunctions read in
 
   number of l-projection  operators is LMAX  =           6
   number of lm-projection operators is LMMAX =          18
 
 POTCAR:    PAW_PBE Pt 04Feb2005                  
   VRHFIN =Pt: s1d9                                                             
   LEXCH  = PE                                                                  
   EATOM  =   729.1176 eV,   53.5886 Ry                                         
                                                                                
   TITEL  = PAW_PBE Pt 04Feb2005                                                
   LULTRA =        F    use ultrasoft PP ?                                      
   IUNSCR =        1    unscreen: 0-lin 1-nonlin 2-no                           
   RPACOR =    2.330    partial core radius                                     
   POMASS =  195.080; ZVAL   =   10.000    mass and valenz                      
   RCORE  =    2.600    outmost cutoff radius                                   
   RWIGS  =    2.750; RWIGS  =    1.455    wigner-seitz radius (au A)           
   ENMAX  =  230.283; ENMIN  =  172.712 eV                                      
   ICORE  =        3    local potential                                         
   LCOR   =        T    correct aug charges                                     
   LPAW   =        T    paw PP                                                  
   EAUG   =  358.966                                                            
   DEXC   =    0.000                                                            
   RMAX   =    2.658    core radius for proj-oper                               
   RAUG   =    1.300    factor for augmentation sphere                          
   RDEP   =    2.761    radius for radial grids                                 
   RDEPT  =    2.203    core radius for aug-charge                              
                                                                                
   Atomic configuration                                                         
   16 entries                                                                   
     n  l   j            E        occ.                                          
     1  0  0.50    -78401.1885   2.0000                                         
     2  0  0.50    -13770.7750   2.0000                                         
     2  1  1.50    -11931.0468   6.0000                                         
     3  0  0.50     -3234.7234   2.0000                                         
     3  1  1.50     -2699.2216   6.0000                                         
     3  2  2.50     -2119.5714  10.0000                                         
     4  0  0.50      -695.1528   2.0000                                         
     4  1  1.50      -519.6034   6.0000                                         
     4  2  2.50      -306.6786  10.0000                                         
     4  3  3.50       -70.1041  14.0000                                         
     5  0  0.50      -101.7747   2.0000                                         
     5  1  1.50       -55.9873   6.0000                                         
     5  2  2.50        -6.1423   9.0000                                         
     6  0  0.50        -5.6573   1.0000                                         
     6  1  1.50        -6.8029   0.0000                                         
     5  3  2.50        -1.3606   0.0000                                         
   Description                                                                  
     l       E           TYP  RCUT    TYP  RCUT                                 
     2     -6.1423404     23  2.500                                             
     2     -7.5029230     23  2.500                                             
     0     -5.6573207     23  2.500                                             
     0      0.7416693     23  2.500                                             
     1     -2.7211652     23  2.600                                             
     1     20.4087390     23  2.600                                             
     3     -1.3605826     23  2.500                                             
  local pseudopotential read in
  partial core-charges read in
  partial kinetic energy density read in
  atomic valenz-charges read in
  non local Contribution for L=           2  read in
    real space projection operators read in
  non local Contribution for L=           2  read in
    real space projection operators read in
  non local Contribution for L=           0  read in
    real space projection operators read in
  non local Contribution for L=           0  read in
    real space projection operators read in
  non local Contribution for L=           1  read in
    real space projection operators read in
  non local Contribution for L=           1  read in
    real space projection operators read in
    PAW grid and wavefunctions read in
 
   number of l-projection  operators is LMAX  =           6
   number of lm-projection operators is LMMAX =          18
 
 Optimization of the real space projectors (new method)

 maximal supplied QI-value         = 15.12
 optimisation between [QCUT,QGAM] = [  9.52, 19.05] = [ 25.40,101.61] Ry 
 Optimized for a Real-space Cutoff    1.57 Angstroem

   l    n(q)    QCUT    max X(q) W(low)/X(q) W(high)/X(q)  e(spline) 
   2      8     9.524    60.898    0.38E-03    0.43E-04    0.84E-07
   2      8     9.524    58.894    0.38E-03    0.47E-04    0.88E-07
   0      9     9.524   109.617    0.60E-04    0.64E-04    0.80E-07
   0      9     9.524    75.026    0.59E-04    0.62E-04    0.78E-07
   1      8     9.524    16.344    0.99E-04    0.18E-03    0.87E-07
   1      8     9.524    10.160    0.78E-04    0.15E-03    0.74E-07
 Optimization of the real space projectors (new method)

 maximal supplied QI-value         = 14.36
 optimisation between [QCUT,QGAM] = [  9.48, 19.10] = [ 25.16,102.17] Ry 
 Optimized for a Real-space Cutoff    1.57 Angstroem

   l    n(q)    QCUT    max X(q) W(low)/X(q) W(high)/X(q)  e(spline) 
   2      8     9.479   134.116    0.18E-03    0.75E-03    0.26E-06
   2      8     9.479   130.192    0.18E-03    0.75E-03    0.27E-06
   0      9     9.479    60.310    0.39E-03    0.24E-03    0.63E-07
   0      9     9.479    39.218    0.36E-03    0.22E-03    0.59E-07
   1      8     9.479    18.439    0.20E-03    0.15E-03    0.16E-06
   1      8     9.479    12.760    0.16E-03    0.11E-03    0.13E-06
 Optimization of the real space projectors (new method)

 maximal supplied QI-value         = 14.36
 optimisation between [QCUT,QGAM] = [  9.48, 19.10] = [ 25.16,102.17] Ry 
 Optimized for a Real-space Cutoff    1.57 Angstroem

   l    n(q)    QCUT    max X(q) W(low)/X(q) W(high)/X(q)  e(spline) 
   2      8     9.479    66.195    0.35E-03    0.53E-04    0.87E-07
   2      8     9.479    64.643    0.35E-03    0.57E-04    0.91E-07
   0      9     9.479    95.520    0.50E-04    0.62E-04    0.81E-07
   0      9     9.479    63.403    0.49E-04    0.60E-04    0.78E-07
   1      8     9.479    19.961    0.10E-03    0.87E-04    0.11E-06
   1      8     9.479    13.289    0.88E-04    0.71E-04    0.97E-07
  PAW_PBE Au 04Oct2007                  :
 energy of atom  1       EATOM= -926.0867
 kinetic energy error for atom=    0.0152 (will be added to EATOM!!)
  PAW_PBE Ir 06Sep2000                  :
 energy of atom  2       EATOM= -560.1833
 kinetic energy error for atom=    0.0056 (will be added to EATOM!!)
  PAW_PBE Pt 04Feb2005                  :
 energy of atom  3       EATOM= -729.1176
 kinetic energy error for atom=    0.0144 (will be added to EATOM!!)
 
 
 POSCAR: Au Ir Pt                                
  positions in cartesian coordinates
  No initial velocities read in
 exchange correlation table for  LEXCH =        8
   RHO(1)=    0.500       N(1)  =     2000
   RHO(2)=  100.500       N(2)  =     4000
 


--------------------------------------------------------------------------------------------------------


 ion  position               nearest neighbor table
   1  0.833  0.833  0.544-  10 2.77  10 2.77  11 2.77  11 2.77  12 2.77  12 2.77   7 2.81   8 2.81
                             9 2.81  13 2.83  14 2.83  15 2.83
   2  0.500  0.000  0.373-   5 2.77   4 2.77   5 2.77   4 2.77   3 2.77   3 2.77   7 2.77   6 2.77
                             9 2.77
   3  0.000  0.000  0.373-   4 2.77   4 2.77   5 2.77   5 2.77   2 2.77   2 2.77   6 2.77   7 2.77
                             8 2.77
   4  0.000  0.500  0.373-   3 2.77   2 2.77   3 2.77   2 2.77   5 2.77   5 2.77   8 2.77   6 2.77
                             9 2.77
   5  0.500  0.500  0.373-   2 2.77   2 2.77   3 2.77   3 2.77   4 2.77   4 2.77   9 2.77   8 2.77
                             7 2.77
   6  0.167  0.167  0.458-   8 2.77   8 2.77   9 2.77   9 2.77   7 2.77   7 2.77   3 2.77   2 2.77
                             4 2.77  10 2.81  12 2.81  11 2.81
   7  0.667  0.167  0.458-   9 2.77   8 2.77   9 2.77   8 2.77   6 2.77   6 2.77   2 2.77   3 2.77
                             5 2.77   1 2.81  11 2.81  10 2.81
   8  0.167  0.667  0.458-   6 2.77   6 2.77   7 2.77   7 2.77   9 2.77   9 2.77   4 2.77   3 2.77
                             5 2.77   1 2.81  11 2.81  12 2.81
   9  0.667  0.667  0.458-   7 2.77   6 2.77   7 2.77   6 2.77   8 2.77   8 2.77   5 2.77   4 2.77
                             2 2.77  10 2.81  12 2.81   1 2.81
  10  0.833  0.333  0.544-   1 2.77   1 2.77  12 2.77  12 2.77  11 2.77  11 2.77   9 2.81   6 2.81
                             7 2.81  15 2.83  13 2.83  16 2.83
  11  0.333  0.333  0.544-  12 2.77   1 2.77  12 2.77   1 2.77  10 2.77  10 2.77   7 2.81   8 2.81
                             6 2.81  16 2.83  15 2.83  14 2.83
  12  0.333  0.833  0.544-  11 2.77  10 2.77  11 2.77  10 2.77   1 2.77   1 2.77   9 2.81   6 2.81
                             8 2.81  14 2.83  13 2.83  16 2.83
  13  0.000  0.000  0.631-  15 2.77  15 2.77  16 2.77  16 2.77  14 2.77  14 2.77   1 2.83  10 2.83
                            12 2.83
  14  0.500  0.000  0.631-  16 2.77  15 2.77  16 2.77  15 2.77  13 2.77  13 2.77  12 2.83  11 2.83
                             1 2.83
  15  0.000  0.500  0.631-  13 2.77  13 2.77  14 2.77  14 2.77  16 2.77  16 2.77  10 2.83   1 2.83
                            11 2.83
  16  0.500  0.500  0.631-  14 2.77  13 2.77  14 2.77  13 2.77  15 2.77  15 2.77  11 2.83  10 2.83
                            12 2.83
 
  LATTYP: Found a hexagonal cell.
 ALAT       =     5.5437171645
 C/A-ratio  =     4.8324325305
  
  Lattice vectors:
  
 A1 = (   2.7718585823,  -4.8009998959,   0.0000000000)
 A2 = (  -5.5437171645,   0.0000000000,   0.0000000000)
 A3 = (   0.0000000000,   0.0000000000, -26.7896391657)


Analysis of symmetry for initial positions (statically):
=====================================================================
 Subroutine PRICEL returns:
 Original cell was already a primitive cell.
 

 Routine SETGRP: Setting up the symmetry group for a 
 hexagonal supercell.


 Subroutine GETGRP returns: Found  2 space group operations
 (whereof  1 operations were pure point group operations)
 out of a pool of 24 trial point group operations.


The static configuration has the point symmetry C_1 .
 The point group associated with its full space group is C_1h.


Analysis of symmetry for dynamics (positions and initial velocities):
=====================================================================
 Subroutine PRICEL returns:
 Original cell was already a primitive cell.
 

 Routine SETGRP: Setting up the symmetry group for a 
 hexagonal supercell.


 Subroutine GETGRP returns: Found  2 space group operations
 (whereof  1 operations were pure point group operations)
 out of a pool of 24 trial point group operations.


The dynamic configuration has the point symmetry C_1 .
 The point group associated with its full space group is C_1h.


Analysis of constrained symmetry for selective dynamics:
=====================================================================
 Subroutine PRICEL returns:
 Original cell was already a primitive cell.
 

 Routine SETGRP: Setting up the symmetry group for a 
 hexagonal supercell.


 Subroutine GETGRP returns: Found  2 space group operations
 (whereof  1 operations were pure point group operations)
 out of a pool of 24 trial point group operations.


The constrained configuration has the point symmetry C_1 .
 The point group associated with its full space group is C_1h.


 Subroutine INISYM returns: Found  2 space group operations
 (whereof  1 operations are pure point group operations),
 and found     1 'primitive' translations

 
 
 KPOINTS: 0.5.Ir1.Au10                            

Automatic generation of k-mesh.
Space group operators:
 irot       det(A)        alpha          n_x          n_y          n_z        tau_x        tau_y        tau_z
    1     1.000000     0.000001     1.000000     0.000000     0.000000     0.000000     0.000000     0.000000
    2    -1.000000   180.000000    -0.500000    -0.866025     0.000000    -0.000000    -0.500000     0.000000
 
 Subroutine IBZKPT returns following result:
 ===========================================
 
 Found     52 irreducible k-points:
 
 Following reciprocal coordinates:
            Coordinates               Weight
  0.062500  0.062500  0.000000     32.000000
 -0.062500  0.000000  0.000000     16.000000
  0.187500  0.062500  0.000000     32.000000
  0.125000  0.187500  0.000000     32.000000
 -0.062500  0.125000  0.000000     32.000000
  0.312500  0.062500  0.000000     32.000000
  0.250000  0.312500  0.000000     32.000000
 -0.062500  0.250000  0.000000     32.000000
  0.437500  0.062500  0.000000     32.000000
  0.375000  0.437500  0.000000     32.000000
 -0.062500  0.375000  0.000000     32.000000
 -0.437500  0.062500  0.000000     32.000000
  0.500000 -0.437500  0.000000     32.000000
 -0.062500  0.500000  0.000000     32.000000
 -0.312500  0.062500  0.000000     32.000000
 -0.375000 -0.312500  0.000000     32.000000
 -0.062500 -0.375000  0.000000     32.000000
 -0.187500  0.062500  0.000000     32.000000
 -0.250000 -0.187500  0.000000     32.000000
 -0.062500 -0.250000  0.000000     32.000000
 -0.062500  0.062500  0.000000     32.000000
 -0.062500 -0.125000  0.000000     16.000000
  0.187500  0.187500  0.000000     32.000000
 -0.187500 -0.000000  0.000000     16.000000
  0.312500  0.187500  0.000000     32.000000
  0.125000  0.312500  0.000000     32.000000
 -0.187500  0.125000  0.000000     32.000000
  0.437500  0.187500  0.000000     32.000000
  0.250000  0.437500  0.000000     32.000000
 -0.187500  0.250000  0.000000     32.000000
 -0.437500  0.187500  0.000000     32.000000
  0.375000 -0.437500  0.000000     32.000000
 -0.187500  0.375000  0.000000     32.000000
 -0.312500  0.187500  0.000000     32.000000
  0.500000 -0.312500  0.000000     32.000000
 -0.187500  0.500000  0.000000     32.000000
 -0.187500  0.187500  0.000000     32.000000
 -0.187500 -0.375000  0.000000     16.000000
  0.312500  0.312500  0.000000     32.000000
 -0.312500  0.000000  0.000000     16.000000
  0.437500  0.312500  0.000000     32.000000
  0.125000  0.437500  0.000000     32.000000
 -0.312500  0.125000  0.000000     32.000000
 -0.437500  0.312500  0.000000     32.000000
  0.250000 -0.437500  0.000000     32.000000
 -0.312500  0.250000  0.000000     32.000000
 -0.312500  0.312500  0.000000     32.000000
 -0.312500  0.375000  0.000000     16.000000
  0.437500  0.437500  0.000000     32.000000
 -0.437500  0.000000  0.000000     16.000000
 -0.437500  0.437500  0.000000     32.000000
 -0.437500  0.125000  0.000000     16.000000
 
 Following cartesian coordinates:
            Coordinates               Weight
  0.011274  0.006509  0.000000     32.000000
 -0.011274  0.006509  0.000000     16.000000
  0.033822 -0.006509  0.000000     32.000000
  0.022548  0.026036  0.000000     32.000000
 -0.011274  0.032545  0.000000     32.000000
  0.056370 -0.019527  0.000000     32.000000
  0.045096  0.039054  0.000000     32.000000
 -0.011274  0.058582  0.000000     32.000000
  0.078918 -0.032545  0.000000     32.000000
  0.067644  0.052072  0.000000     32.000000
 -0.011274  0.084618  0.000000     32.000000
 -0.078918  0.058582  0.000000     32.000000
  0.090192 -0.143199  0.000000     32.000000
 -0.011274  0.110654  0.000000     32.000000
 -0.056370  0.045563  0.000000     32.000000
 -0.067644 -0.026036  0.000000     32.000000
 -0.011274 -0.071600  0.000000     32.000000
 -0.033822  0.032545  0.000000     32.000000
 -0.045096 -0.013018  0.000000     32.000000
 -0.011274 -0.045563  0.000000     32.000000
 -0.011274  0.019527  0.000000     32.000000
 -0.011274 -0.019527  0.000000     16.000000
  0.033822  0.019527  0.000000     32.000000
 -0.033822  0.019527  0.000000     16.000000
  0.056370  0.006509  0.000000     32.000000
  0.022548  0.052072  0.000000     32.000000
 -0.033822  0.045563  0.000000     32.000000
  0.078918 -0.006509  0.000000     32.000000
  0.045096  0.065091  0.000000     32.000000
 -0.033822  0.071600  0.000000     32.000000
 -0.078918  0.084618  0.000000     32.000000
  0.067644 -0.130181  0.000000     32.000000
 -0.033822  0.097636  0.000000     32.000000
 -0.056370  0.071600  0.000000     32.000000
  0.090192 -0.117163  0.000000     32.000000
 -0.033822  0.123672  0.000000     32.000000
 -0.033822  0.058582  0.000000     32.000000
 -0.033822 -0.058582  0.000000     16.000000
  0.056370  0.032545  0.000000     32.000000
 -0.056370  0.032545  0.000000     16.000000
  0.078918  0.019527  0.000000     32.000000
  0.022548  0.078109  0.000000     32.000000
 -0.056370  0.058582  0.000000     32.000000
 -0.078918  0.110654  0.000000     32.000000
  0.045096 -0.117163  0.000000     32.000000
 -0.056370  0.084618  0.000000     32.000000
 -0.056370  0.097636  0.000000     32.000000
 -0.056370  0.110654  0.000000     16.000000
  0.078918  0.045563  0.000000     32.000000
 -0.078918  0.045563  0.000000     16.000000
 -0.078918  0.136690  0.000000     32.000000
 -0.078918  0.071600  0.000000     16.000000
 


--------------------------------------------------------------------------------------------------------




 Dimension of arrays:
   k-points           NKPTS =     52   k-points in BZ     NKDIM =     52   number of bands    NBANDS=     96
   number of dos      NEDOS =    301   number of ions     NIONS =     16
   non local maximal  LDIM  =      6   non local SUM 2l+1 LMDIM =     18
   total plane-waves  NPLWV =  98784
   max r-space proj   IRMAX =   2277   max aug-charges    IRDMAX=  10217
   dimension x,y,z NGX =    28 NGY =   28 NGZ =  126
   dimension x,y,z NGXF=    56 NGYF=   56 NGZF=  252
   support grid    NGXF=    56 NGYF=   56 NGZF=  252
   ions per type =               1   1  14
   NGX,Y,Z   is equivalent  to a cutoff of   8.40,  8.40,  7.82 a.u.
   NGXF,Y,Z  is equivalent  to a cutoff of  16.79, 16.79, 15.64 a.u.

 SYSTEM =  0.5.Ir1.Au10                            
 POSCAR =  Au Ir Pt                                

 Startparameter for this run:
   NWRITE =      2    write-flag & timer
   PREC   = normal    normal or accurate (medium, high low for compatibility)
   ISTART =      0    job   : 0-new  1-cont  2-samecut
   ICHARG =      2    charge: 1-file 2-atom 10-const
   ISPIN  =      1    spin polarized calculation?
   LNONCOLLINEAR =      F non collinear calculations
   LSORBIT =      F    spin-orbit coupling
   INIWAV =      1    electr: 0-lowe 1-rand  2-diag
   LASPH  =      F    aspherical Exc in radial PAW
   METAGGA=      F    non-selfconsistent MetaGGA calc.

 Electronic Relaxation 1
   ENCUT  =  350.0 eV  25.72 Ry    5.07 a.u.   8.46  8.46 40.87*2*pi/ulx,y,z
   ENINI  =  350.0     initial cutoff
   ENAUG  =  359.0 eV  augmentation charge cutoff
   NELM   =   1000;   NELMIN=  5; NELMDL= -5     # of ELM steps 
   EDIFF  = 0.1E-04   stopping-criterion for ELM
   LREAL  =      T    real-space projection
   NLSPLINE    = F    spline interpolate recip. space projectors
   LCOMPAT=      F    compatible to vasp.4.4
   GGA_COMPAT  = T    GGA compatible to vasp.4.4-vasp.4.6
   LMAXPAW     = -100 max onsite density
   LMAXMIX     =    2 max onsite mixed and CHGCAR
   VOSKOWN=      0    Vosko Wilk Nusair interpolation
   ROPT   =   -0.00050  -0.00050  -0.00050
 Ionic relaxation
   EDIFFG = 0.1E-03   stopping-criterion for IOM
   NSW    =      0    number of steps for IOM
   NBLOCK =      1;   KBLOCK =      1    inner block; outer block 
   IBRION =     -1    ionic relax: 0-MD 1-quasi-New 2-CG
   NFREE  =      0    steps in history (QN), initial steepest desc. (CG)
   ISIF   =      2    stress and relaxation
   IWAVPR =     10    prediction:  0-non 1-charg 2-wave 3-comb
   ISYM   =      2    0-nonsym 1-usesym 2-fastsym
   LCORR  =      T    Harris-Foulkes like correction to forces

   POTIM  = 0.5000    time-step for ionic-motion
   TEIN   =    0.0    initial temperature
   TEBEG  =    0.0;   TEEND  =   0.0 temperature during run
   SMASS  =  -3.00    Nose mass-parameter (am)
   estimated Nose-frequenzy (Omega)   =  0.10E-29 period in steps =****** mass=  -0.702E-27a.u.
   SCALEE = 1.0000    scale energy and forces
   NPACO  =    256;   APACO  = 16.0  distance and # of slots for P.C.
   PSTRESS=    0.0 pullay stress

  Mass of Ions in am
   POMASS = 196.97192.22195.08
  Ionic Valenz
   ZVAL   =  11.00  9.00 10.00
  Atomic Wigner-Seitz radii
   RWIGS  =  -1.00 -1.00 -1.00
  virtual crystal weights 
   VCA    =   1.00  1.00  1.00
   NELECT =     160.0000    total number of electrons
   NUPDOWN=      -1.0000    fix difference up-down

 DOS related values:
   EMIN   =  10.00;   EMAX   =-10.00  energy-range for DOS
   EFERMI =   0.00
   ISMEAR =     1;   SIGMA  =   0.20  broadening in eV -4-tet -1-fermi 0-gaus

 Electronic relaxation 2 (details)
   IALGO  =     38    algorithm
   LDIAG  =      T    sub-space diagonalisation (order eigenvalues)
   LSUBROT=      F    optimize rotation matrix (better conditioning)
   TURBO    =      0    0=normal 1=particle mesh
   IRESTART =      0    0=no restart 2=restart with 2 vectors
   NREBOOT  =      0    no. of reboots
   NMIN     =      0    reboot dimension
   EREF     =   0.00    reference energy to select bands
   IMIX   =      4    mixing-type and parameters
     AMIX     =   0.40;   BMIX     =  1.00
     AMIX_MAG =   1.60;   BMIX_MAG =  1.00
     AMIN     =   0.10
     WC   =   100.;   INIMIX=   1;  MIXPRE=   1;  MAXMIX= -45

 Intra band minimization:
   WEIMIN = 0.0000     energy-eigenvalue tresh-hold
   EBREAK =  0.26E-07  absolut break condition
   DEPER  =   0.30     relativ break condition  

   TIME   =   0.40     timestep for ELM

  volume/ion in A,a.u.               =      44.56       300.73
  Fermi-wavevector in a.u.,A,eV,Ry     =   0.994829  1.879954 13.465469  0.989684
  Thomas-Fermi vector in A             =   2.126807
 
 Write flags
   LWAVE        =      F    write WAVECAR
   LDOWNSAMPLE  =      F    k-point downsampling of WAVECAR
   LCHARG       =      F    write CHGCAR
   LVTOT        =      F    write LOCPOT, total local potential
   LVHAR        =      F    write LOCPOT, Hartree potential only
   LELF         =      F    write electronic localiz. function (ELF)
   LORBIT       =      0    0 simple, 1 ext, 2 COOP (PROOUT), +10 PAW based schemes


 Dipole corrections
   LMONO  =      F    monopole corrections only (constant potential shift)
   LDIPOL =      F    correct potential (dipole corrections)
   IDIPOL =      3    1-x, 2-y, 3-z, 4-all directions 
   EPSILON=  1.0000000 bulk dielectric constant

 Exchange correlation treatment:
   GGA     =    --    GGA type
   LEXCH   =     8    internal setting for exchange type
   VOSKOWN=      0    Vosko Wilk Nusair interpolation
   LHFCALC =     F    Hartree Fock is set to
   LHFONE  =     F    Hartree Fock one center treatment
   AEXX    =    0.0000 exact exchange contribution

 Linear response parameters
   LEPSILON=     F    determine dielectric tensor
   LRPA    =     F    only Hartree local field effects (RPA)
   LNABLA  =     F    use nabla operator in PAW spheres
   LVEL    =     F    velocity operator in full k-point grid
   LINTERFAST=   F  fast interpolation
   KINTER  =     0    interpolate to denser k-point grid
   CSHIFT  =0.1000    complex shift for real part using Kramers Kronig
   OMEGAMAX=  -1.0    maximum frequency
   DEG_THRESHOLD= 0.2000000E-02 threshold for treating states as degnerate
   RTIME   =   -0.100 relaxation time in fs
  (WPLASMAI=    0.000 imaginary part of plasma frequency in eV, 0.658/RTIME)
   DFIELD  = 0.0000000 0.0000000 0.0000000 field for delta impulse in time
 
 Orbital magnetization related:
   ORBITALMAG=     F  switch on orbital magnetization
   LCHIMAG   =     F  perturbation theory with respect to B field
   DQ        =  0.001000  dq finite difference perturbation B field
   LLRAUG    =     F  two centre corrections for induced B field



--------------------------------------------------------------------------------------------------------


 Static calculation
 charge density and potential will be updated during run
 non-spin polarized calculation
 Variant of blocked Davidson
 Davidson routine will perform the subspace rotation
 perform sub-space diagonalisation
    after iterative eigenvector-optimisation
 modified Broyden-mixing scheme, WC =      100.0
 initial mixing is a Kerker type mixing with AMIX =  0.4000 and BMIX =      1.0000
 Hartree-type preconditioning will be used
 using additional bands           16
 real space projection scheme for non local part
 use partial core corrections
 calculate Harris-corrections to forces 
   (improved forces if not selfconsistent)
 use gradient corrections 
 use of overlap-Matrix (Vanderbilt PP)
 Methfessel and Paxton  Order N= 1 SIGMA  =   0.20


--------------------------------------------------------------------------------------------------------


  energy-cutoff  :      350.00
  volume of cell :      713.02
      direct lattice vectors                 reciprocal lattice vectors
     5.543717165  0.000000000  0.000000000     0.180384383 -0.104144972  0.000000000
     2.771858582  4.800999896  0.000000000     0.000000000  0.208289944  0.000000000
     0.000000000  0.000000000 26.789639166     0.000000000  0.000000000  0.037327864

  length of vectors
     5.543717165  5.543717165 26.789639166     0.208289944  0.208289944  0.037327864


 
 k-points in units of 2pi/SCALE and weight: 0.5.Ir1.Au10                            
   0.01127402  0.00650906  0.00000000       0.021
  -0.01127402  0.00650906  0.00000000       0.010
   0.03382207 -0.00650906  0.00000000       0.021
   0.02254805  0.02603624  0.00000000       0.021
  -0.01127402  0.03254530  0.00000000       0.021
   0.05637012 -0.01952718  0.00000000       0.021
   0.04509610  0.03905436  0.00000000       0.021
  -0.01127402  0.05858155  0.00000000       0.021
   0.07891817 -0.03254530  0.00000000       0.021
   0.06764414  0.05207249  0.00000000       0.021
  -0.01127402  0.08461779  0.00000000       0.021
  -0.07891817  0.05858155  0.00000000       0.021
   0.09019219 -0.14319934  0.00000000       0.021
  -0.01127402  0.11065403  0.00000000       0.021
  -0.05637012  0.04556343  0.00000000       0.021
  -0.06764414 -0.02603624  0.00000000       0.021
  -0.01127402 -0.07159967  0.00000000       0.021
  -0.03382207  0.03254530  0.00000000       0.021
  -0.04509610 -0.01301812  0.00000000       0.021
  -0.01127402 -0.04556343  0.00000000       0.021
  -0.01127402  0.01952718  0.00000000       0.021
  -0.01127402 -0.01952718  0.00000000       0.010
   0.03382207  0.01952718  0.00000000       0.021
  -0.03382207  0.01952718  0.00000000       0.010
   0.05637012  0.00650906  0.00000000       0.021
   0.02254805  0.05207249  0.00000000       0.021
  -0.03382207  0.04556343  0.00000000       0.021
   0.07891817 -0.00650906  0.00000000       0.021
   0.04509610  0.06509061  0.00000000       0.021
  -0.03382207  0.07159967  0.00000000       0.021
  -0.07891817  0.08461779  0.00000000       0.021
   0.06764414 -0.13018122  0.00000000       0.021
  -0.03382207  0.09763591  0.00000000       0.021
  -0.05637012  0.07159967  0.00000000       0.021
   0.09019219 -0.11716309  0.00000000       0.021
  -0.03382207  0.12367215  0.00000000       0.021
  -0.03382207  0.05858155  0.00000000       0.021
  -0.03382207 -0.05858155  0.00000000       0.010
   0.05637012  0.03254530  0.00000000       0.021
  -0.05637012  0.03254530  0.00000000       0.010
   0.07891817  0.01952718  0.00000000       0.021
   0.02254805  0.07810873  0.00000000       0.021
  -0.05637012  0.05858155  0.00000000       0.021
  -0.07891817  0.11065403  0.00000000       0.021
   0.04509610 -0.11716309  0.00000000       0.021
  -0.05637012  0.08461779  0.00000000       0.021
  -0.05637012  0.09763591  0.00000000       0.021
  -0.05637012  0.11065403  0.00000000       0.010
   0.07891817  0.04556343  0.00000000       0.021
  -0.07891817  0.04556343  0.00000000       0.010
  -0.07891817  0.13669028  0.00000000       0.021
  -0.07891817  0.07159967  0.00000000       0.010
 
 k-points in reciprocal lattice and weights: 0.5.Ir1.Au10                            
   0.06250000  0.06250000  0.00000000       0.021
  -0.06250000  0.00000000  0.00000000       0.010
   0.18750000  0.06250000  0.00000000       0.021
   0.12500000  0.18750000  0.00000000       0.021
  -0.06250000  0.12500000  0.00000000       0.021
   0.31250000  0.06250000  0.00000000       0.021
   0.25000000  0.31250000  0.00000000       0.021
  -0.06250000  0.25000000  0.00000000       0.021
   0.43750000  0.06250000  0.00000000       0.021
   0.37500000  0.43750000  0.00000000       0.021
  -0.06250000  0.37500000  0.00000000       0.021
  -0.43750000  0.06250000  0.00000000       0.021
   0.50000000 -0.43750000  0.00000000       0.021
  -0.06250000  0.50000000  0.00000000       0.021
  -0.31250000  0.06250000  0.00000000       0.021
  -0.37500000 -0.31250000  0.00000000       0.021
  -0.06250000 -0.37500000  0.00000000       0.021
  -0.18750000  0.06250000  0.00000000       0.021
  -0.25000000 -0.18750000  0.00000000       0.021
  -0.06250000 -0.25000000  0.00000000       0.021
  -0.06250000  0.06250000  0.00000000       0.021
  -0.06250000 -0.12500000  0.00000000       0.010
   0.18750000  0.18750000  0.00000000       0.021
  -0.18750000 -0.00000000  0.00000000       0.010
   0.31250000  0.18750000  0.00000000       0.021
   0.12500000  0.31250000  0.00000000       0.021
  -0.18750000  0.12500000  0.00000000       0.021
   0.43750000  0.18750000  0.00000000       0.021
   0.25000000  0.43750000  0.00000000       0.021
  -0.18750000  0.25000000  0.00000000       0.021
  -0.43750000  0.18750000  0.00000000       0.021
   0.37500000 -0.43750000  0.00000000       0.021
  -0.18750000  0.37500000  0.00000000       0.021
  -0.31250000  0.18750000  0.00000000       0.021
   0.50000000 -0.31250000  0.00000000       0.021
  -0.18750000  0.50000000  0.00000000       0.021
  -0.18750000  0.18750000  0.00000000       0.021
  -0.18750000 -0.37500000  0.00000000       0.010
   0.31250000  0.31250000  0.00000000       0.021
  -0.31250000  0.00000000  0.00000000       0.010
   0.43750000  0.31250000  0.00000000       0.021
   0.12500000  0.43750000  0.00000000       0.021
  -0.31250000  0.12500000  0.00000000       0.021
  -0.43750000  0.31250000  0.00000000       0.021
   0.25000000 -0.43750000  0.00000000       0.021
  -0.31250000  0.25000000  0.00000000       0.021
  -0.31250000  0.31250000  0.00000000       0.021
  -0.31250000  0.37500000  0.00000000       0.010
   0.43750000  0.43750000  0.00000000       0.021
  -0.43750000  0.00000000  0.00000000       0.010
  -0.43750000  0.43750000  0.00000000       0.021
  -0.43750000  0.12500000  0.00000000       0.010
 
 position of ions in fractional coordinates (direct lattice) 
   0.83333333  0.83333333  0.54381573
   0.50000000  0.00000000  0.37327864
   0.00000000  0.00000000  0.37327864
   0.00000000  0.50000000  0.37327864
   0.50000000  0.50000000  0.37327864
   0.16666667  0.16666667  0.45775955
   0.66666667  0.16666667  0.45775955
   0.16666667  0.66666667  0.45775955
   0.66666667  0.66666667  0.45775955
   0.83333333  0.33333333  0.54381573
   0.33333333  0.33333333  0.54381573
   0.33333333  0.83333333  0.54381573
   0.00000000  0.00000000  0.63112717
   0.50000000  0.00000000  0.63112717
   0.00000000  0.50000000  0.63112717
   0.50000000  0.50000000  0.63112717
 
 position of ions in cartesian coordinates  (Angst):
   6.92964646  4.00083325 14.56862716
   2.77185858  0.00000000 10.00000000
   0.00000000  0.00000000 10.00000000
   1.38592929  2.40049995 10.00000000
   4.15778787  2.40049995 10.00000000
   1.38592929  0.80016665 12.26321306
   4.15778787  0.80016665 12.26321306
   2.77185858  3.20066660 12.26321306
   5.54371716  3.20066660 12.26321306
   5.54371716  1.60033330 14.56862716
   2.77185858  1.60033330 14.56862716
   4.15778787  4.00083325 14.56862716
   0.00000000  0.00000000 16.90766902
   2.77185858  0.00000000 16.90766902
   1.38592929  2.40049995 16.90766902
   4.15778787  2.40049995 16.90766902
 


--------------------------------------------------------------------------------------------------------


 k-point  1 :   0.0625 0.0625 0.0000  plane waves:   10681
 k-point  2 :  -0.0625 0.0000 0.0000  plane waves:   10681
 k-point  3 :   0.1875 0.0625 0.0000  plane waves:   10654
 k-point  4 :   0.1250 0.1875 0.0000  plane waves:   10654
 k-point  5 :  -0.0625 0.1250 0.0000  plane waves:   10654
 k-point  6 :   0.3125 0.0625 0.0000  plane waves:   10616
 k-point  7 :   0.2500 0.3125 0.0000  plane waves:   10616
 k-point  8 :  -0.0625 0.2500 0.0000  plane waves:   10616
 k-point  9 :   0.4375 0.0625 0.0000  plane waves:   10577
 k-point 10 :   0.3750 0.4375 0.0000  plane waves:   10577
 k-point 11 :  -0.0625 0.3750 0.0000  plane waves:   10577
 k-point 12 :  -0.4375 0.0625 0.0000  plane waves:   10551
 k-point 13 :   0.5000-0.4375 0.0000  plane waves:   10551
 k-point 14 :  -0.0625 0.5000 0.0000  plane waves:   10551
 k-point 15 :  -0.3125 0.0625 0.0000  plane waves:   10587
 k-point 16 :  -0.3750-0.3125 0.0000  plane waves:   10587
 k-point 17 :  -0.0625-0.3750 0.0000  plane waves:   10587
 k-point 18 :  -0.1875 0.0625 0.0000  plane waves:   10616
 k-point 19 :  -0.2500-0.1875 0.0000  plane waves:   10616
 k-point 20 :  -0.0625-0.2500 0.0000  plane waves:   10616
 k-point 21 :  -0.0625 0.0625 0.0000  plane waves:   10677
 k-point 22 :  -0.0625-0.1250 0.0000  plane waves:   10677
 k-point 23 :   0.1875 0.1875 0.0000  plane waves:   10631
 k-point 24 :  -0.1875-0.0000 0.0000  plane waves:   10631
 k-point 25 :   0.3125 0.1875 0.0000  plane waves:   10620
 k-point 26 :   0.1250 0.3125 0.0000  plane waves:   10620
 k-point 27 :  -0.1875 0.1250 0.0000  plane waves:   10620
 k-point 28 :   0.4375 0.1875 0.0000  plane waves:   10599
 k-point 29 :   0.2500 0.4375 0.0000  plane waves:   10599
 k-point 30 :  -0.1875 0.2500 0.0000  plane waves:   10599
 k-point 31 :  -0.4375 0.1875 0.0000  plane waves:   10577
 k-point 32 :   0.3750-0.4375 0.0000  plane waves:   10577
 k-point 33 :  -0.1875 0.3750 0.0000  plane waves:   10577
 k-point 34 :  -0.3125 0.1875 0.0000  plane waves:   10577
 k-point 35 :   0.5000-0.3125 0.0000  plane waves:   10577
 k-point 36 :  -0.1875 0.5000 0.0000  plane waves:   10577
 k-point 37 :  -0.1875 0.1875 0.0000  plane waves:   10613
 k-point 38 :  -0.1875-0.3750 0.0000  plane waves:   10613
 k-point 39 :   0.3125 0.3125 0.0000  plane waves:   10603
 k-point 40 :  -0.3125 0.0000 0.0000  plane waves:   10603
 k-point 41 :   0.4375 0.3125 0.0000  plane waves:   10605
 k-point 42 :   0.1250 0.4375 0.0000  plane waves:   10605
 k-point 43 :  -0.3125 0.1250 0.0000  plane waves:   10605
 k-point 44 :  -0.4375 0.3125 0.0000  plane waves:   10593
 k-point 45 :   0.2500-0.4375 0.0000  plane waves:   10593
 k-point 46 :  -0.3125 0.2500 0.0000  plane waves:   10593
 k-point 47 :  -0.3125 0.3125 0.0000  plane waves:   10592
 k-point 48 :  -0.3125 0.3750 0.0000  plane waves:   10592
 k-point 49 :   0.4375 0.4375 0.0000  plane waves:   10562
 k-point 50 :  -0.4375 0.0000 0.0000  plane waves:   10562
 k-point 51 :  -0.4375 0.4375 0.0000  plane waves:   10550
 k-point 52 :  -0.4375 0.1250 0.0000  plane waves:   10550

 maximum and minimum number of plane-waves per node :      2695     2607

 maximum number of plane-waves:     10681
 maximum index in each direction: 
   IXMAX=    8   IYMAX=    8   IZMAX=   40
   IXMIN=   -8   IYMIN=   -8   IZMIN=  -40


 real space projection operators:
  total allocation   :       4856.06 KBytes
  max/ min on nodes  :       1216.41       1211.62


 parallel 3D FFT for wavefunctions:
    minimum data exchange during FFTs selected (reduces bandwidth)
 parallel 3D FFT for charge:
    minimum data exchange during FFTs selected (reduces bandwidth)


 total amount of memory used by VASP MPI-rank0    94502. kBytes
=======================================================================

   base      :      30000. kBytes
   nonlr-proj:       2110. kBytes
   fftplans  :       2594. kBytes
   grid      :       4625. kBytes
   one-center:         62. kBytes
   wavefun   :      55111. kBytes
 
     INWAV:  cpu time    0.0000: real time    0.0000
 Broyden mixing: mesh for mixing (old mesh)
   NGX = 17   NGY = 17   NGZ = 81
  (NGX  = 56   NGY  = 56   NGZ  =252)
  gives a total of  23409 points

 initial charge density was supplied:
 charge density of overlapping atoms calculated
 number of electron     160.0000000 magnetization 
 keeping initial charge density in first step


--------------------------------------------------------------------------------------------------------


 Maximum index for non-local projection operator          548
 Maximum index for augmentation-charges          730 (set IRDMAX)


--------------------------------------------------------------------------------------------------------


 First call to EWALD:  gamma=   0.198
 Maximum number of real-space cells 5x 5x 1
 Maximum number of reciprocal cells 2x 2x 7

    FEWALD:  cpu time    0.0012: real time    0.0012


--------------------------------------- Iteration      1(   1)  ---------------------------------------


    POTLOK:  cpu time    0.0219: real time    0.0276
    SETDIJ:  cpu time    0.0024: real time    0.0025
     EDDAV:  cpu time    6.0635: real time    6.0641
       DOS:  cpu time    0.0043: real time    0.0043
    --------------------------------------------
      LOOP:  cpu time    6.0921: real time    6.0984

 eigenvalue-minimisations  : 10024
 total energy-change (2. order) : 0.9774697E+03  (-0.5661168E+04)
 number of electron     160.0000000 magnetization 
 augmentation part      160.0000000 magnetization 

 Free energy of the ion-electron system (eV)
  ---------------------------------------------------
  alpha Z        PSCENC =       350.82459594
  Ewald energy   TEWEN  =     73410.14867536
  -Hartree energ DENC   =    -85645.21993191
  -exchange      EXHF   =         0.00000000
  -V(xc)+E(xc)   XCENC  =        46.80786893
  PAW double counting   =     11171.21661038   -10711.84633960
  entropy T*S    EENTRO =         0.01030248
  eigenvalues    EBANDS =       661.83372506
  atomic energy  EATOM  =     11693.69420960
  Solvation  Ediel_sol  =         0.00000000
  ---------------------------------------------------
  free energy    TOTEN  =       977.46971625 eV

  energy without entropy =      977.45941377  energy(sigma->0) =      977.46628209


--------------------------------------------------------------------------------------------------------




--------------------------------------- Iteration      1(   2)  ---------------------------------------


     EDDAV:  cpu time    7.0680: real time    7.0687
       DOS:  cpu time    0.0051: real time    0.0051
    --------------------------------------------
      LOOP:  cpu time    7.0732: real time    7.0738

 eigenvalue-minimisations  : 12248
 total energy-change (2. order) :-0.9951441E+03  (-0.9150704E+03)
 number of electron     160.0000000 magnetization 
 augmentation part      160.0000000 magnetization 

 Free energy of the ion-electron system (eV)
  ---------------------------------------------------
  alpha Z        PSCENC =       350.82459594
  Ewald energy   TEWEN  =     73410.14867536
  -Hartree energ DENC   =    -85645.21993191
  -exchange      EXHF   =         0.00000000
  -V(xc)+E(xc)   XCENC  =        46.80786893
  PAW double counting   =     11171.21661038   -10711.84633960
  entropy T*S    EENTRO =        -0.00019951
  eigenvalues    EBANDS =      -333.29984543
  atomic energy  EATOM  =     11693.69420960
  Solvation  Ediel_sol  =         0.00000000
  ---------------------------------------------------
  free energy    TOTEN  =       -17.67435623 eV

  energy without entropy =      -17.67415672  energy(sigma->0) =      -17.67428973


--------------------------------------------------------------------------------------------------------




--------------------------------------- Iteration      1(   3)  ---------------------------------------


     EDDAV:  cpu time    6.9203: real time    6.9211
       DOS:  cpu time    0.0055: real time    0.0055
    --------------------------------------------
      LOOP:  cpu time    6.9258: real time    6.9266

 eigenvalue-minimisations  : 11944
 total energy-change (2. order) :-0.7709787E+02  (-0.6961755E+02)
 number of electron     160.0000000 magnetization 
 augmentation part      160.0000000 magnetization 

 Free energy of the ion-electron system (eV)
  ---------------------------------------------------
  alpha Z        PSCENC =       350.82459594
  Ewald energy   TEWEN  =     73410.14867536
  -Hartree energ DENC   =    -85645.21993191
  -exchange      EXHF   =         0.00000000
  -V(xc)+E(xc)   XCENC  =        46.80786893
  PAW double counting   =     11171.21661038   -10711.84633960
  entropy T*S    EENTRO =        -0.00200761
  eigenvalues    EBANDS =      -410.39590959
  atomic energy  EATOM  =     11693.69420960
  Solvation  Ediel_sol  =         0.00000000
  ---------------------------------------------------
  free energy    TOTEN  =       -94.77222849 eV

  energy without entropy =      -94.77022088  energy(sigma->0) =      -94.77155928


--------------------------------------------------------------------------------------------------------




--------------------------------------- Iteration      1(   4)  ---------------------------------------


     EDDAV:  cpu time    7.6712: real time    7.6719
       DOS:  cpu time    0.0055: real time    0.0055
    --------------------------------------------
      LOOP:  cpu time    7.6768: real time    7.6774

 eigenvalue-minimisations  : 13616
 total energy-change (2. order) :-0.3220204E+01  (-0.3082740E+01)
 number of electron     160.0000000 magnetization 
 augmentation part      160.0000000 magnetization 

 Free energy of the ion-electron system (eV)
  ---------------------------------------------------
  alpha Z        PSCENC =       350.82459594
  Ewald energy   TEWEN  =     73410.14867536
  -Hartree energ DENC   =    -85645.21993191
  -exchange      EXHF   =         0.00000000
  -V(xc)+E(xc)   XCENC  =        46.80786893
  PAW double counting   =     11171.21661038   -10711.84633960
  entropy T*S    EENTRO =        -0.00477764
  eigenvalues    EBANDS =      -413.61334359
  atomic energy  EATOM  =     11693.69420960
  Solvation  Ediel_sol  =         0.00000000
  ---------------------------------------------------
  free energy    TOTEN  =       -97.99243252 eV

  energy without entropy =      -97.98765488  energy(sigma->0) =      -97.99083998


--------------------------------------------------------------------------------------------------------




--------------------------------------- Iteration      1(   5)  ---------------------------------------


     EDDAV:  cpu time    7.3387: real time    7.3419
       DOS:  cpu time    0.0057: real time    0.0057
    CHARGE:  cpu time    0.3408: real time    0.3408
    MIXING:  cpu time    0.0010: real time    0.0010
    --------------------------------------------
      LOOP:  cpu time    7.6861: real time    7.6894

 eigenvalue-minimisations  : 12880
 total energy-change (2. order) :-0.8233105E-01  (-0.8199147E-01)
 number of electron     160.0000122 magnetization 
 augmentation part       46.9867338 magnetization 

 Broyden mixing:
  rms(total) = 0.42939E+01    rms(broyden)= 0.42938E+01
  rms(prec ) = 0.43351E+01
  weight for this iteration     100.00

 Free energy of the ion-electron system (eV)
  ---------------------------------------------------
  alpha Z        PSCENC =       350.82459594
  Ewald energy   TEWEN  =     73410.14867536
  -Hartree energ DENC   =    -85645.21993191
  -exchange      EXHF   =         0.00000000
  -V(xc)+E(xc)   XCENC  =        46.80786893
  PAW double counting   =     11171.21661038   -10711.84633960
  entropy T*S    EENTRO =        -0.00462018
  eigenvalues    EBANDS =      -413.69583210
  atomic energy  EATOM  =     11693.69420960
  Solvation  Ediel_sol  =         0.00000000
  ---------------------------------------------------
  free energy    TOTEN  =       -98.07476357 eV

  energy without entropy =      -98.07014339  energy(sigma->0) =      -98.07322351


--------------------------------------------------------------------------------------------------------




--------------------------------------- Iteration      1(   6)  ---------------------------------------


    POTLOK:  cpu time    0.0193: real time    0.0197
    SETDIJ:  cpu time    0.0023: real time    0.0023
     EDDAV:  cpu time    6.8454: real time    6.8456
       DOS:  cpu time    0.0054: real time    0.0054
    CHARGE:  cpu time    0.3395: real time    0.3395
    MIXING:  cpu time    0.0010: real time    0.0010
    --------------------------------------------
      LOOP:  cpu time    7.2129: real time    7.2136

 eigenvalue-minimisations  : 11848
 total energy-change (2. order) : 0.1217826E+01  (-0.2198198E+01)
 number of electron     160.0000106 magnetization 
 augmentation part       49.4752372 magnetization 

 Broyden mixing:
  rms(total) = 0.37147E+01    rms(broyden)= 0.37146E+01
  rms(prec ) = 0.42751E+01
  weight for this iteration     100.00

 eigenvalues of (default mixing * dielectric matrix)
  average eigenvalue GAMMA=   0.8582
  0.8582

 Free energy of the ion-electron system (eV)
  ---------------------------------------------------
  alpha Z        PSCENC =       350.82459594
  Ewald energy   TEWEN  =     73410.14867536
  -Hartree energ DENC   =    -85452.86233343
  -exchange      EXHF   =         0.00000000
  -V(xc)+E(xc)   XCENC  =        42.71370506
  PAW double counting   =     12376.63747043   -11940.78126849
  entropy T*S    EENTRO =         0.00658898
  eigenvalues    EBANDS =      -577.23858137
  atomic energy  EATOM  =     11693.69420960
  Solvation  Ediel_sol  =         0.00000000
  ---------------------------------------------------
  free energy    TOTEN  =       -96.85693791 eV

  energy without entropy =      -96.86352689  energy(sigma->0) =      -96.85913424


--------------------------------------------------------------------------------------------------------




--------------------------------------- Iteration      1(   7)  ---------------------------------------


    POTLOK:  cpu time    0.0179: real time    0.0180
    SETDIJ:  cpu time    0.0023: real time    0.0023
     EDDAV:  cpu time    8.5284: real time    8.5286
       DOS:  cpu time    0.0052: real time    0.0052
    CHARGE:  cpu time    0.3406: real time    0.3406
    MIXING:  cpu time    0.0011: real time    0.0011
    --------------------------------------------
      LOOP:  cpu time    8.8955: real time    8.8958

 eigenvalue-minimisations  : 15552
 total energy-change (2. order) :-0.4094589E+02  (-0.8685203E+01)
 number of electron     160.0000128 magnetization 
 augmentation part       48.0949284 magnetization 

 Broyden mixing:
  rms(total) = 0.53891E+01    rms(broyden)= 0.53890E+01
  rms(prec ) = 0.71837E+01
  weight for this iteration     100.00

 eigenvalues of (default mixing * dielectric matrix)
  average eigenvalue GAMMA=   0.9143
  1.6788  0.1498

 Free energy of the ion-electron system (eV)
  ---------------------------------------------------
  alpha Z        PSCENC =       350.82459594
  Ewald energy   TEWEN  =     73410.14867536
  -Hartree energ DENC   =    -85526.34225766
  -exchange      EXHF   =         0.00000000
  -V(xc)+E(xc)   XCENC  =        41.96820702
  PAW double counting   =     12819.49629851   -12389.04135540
  entropy T*S    EENTRO =        -0.01047074
  eigenvalues    EBANDS =      -538.54073395
  atomic energy  EATOM  =     11693.69420960
  Solvation  Ediel_sol  =         0.00000000
  ---------------------------------------------------
  free energy    TOTEN  =      -137.80283130 eV

  energy without entropy =     -137.79236056  energy(sigma->0) =     -137.79934105


--------------------------------------------------------------------------------------------------------




--------------------------------------- Iteration      1(   8)  ---------------------------------------


    POTLOK:  cpu time    0.0183: real time    0.0184
    SETDIJ:  cpu time    0.0023: real time    0.0023
     EDDAV:  cpu time    7.8575: real time    7.8578
       DOS:  cpu time    0.0056: real time    0.0056
    CHARGE:  cpu time    0.3395: real time    0.3395
    MIXING:  cpu time    0.0012: real time    0.0012
    --------------------------------------------
      LOOP:  cpu time    8.2244: real time    8.2248

 eigenvalue-minimisations  : 14088
 total energy-change (2. order) : 0.1401257E+02  (-0.5957386E+01)
 number of electron     160.0000156 magnetization 
 augmentation part       48.9156615 magnetization 

 Broyden mixing:
  rms(total) = 0.45485E+01    rms(broyden)= 0.45484E+01
  rms(prec ) = 0.52790E+01
  weight for this iteration     100.00

 eigenvalues of (default mixing * dielectric matrix)
  average eigenvalue GAMMA=   0.8577
  2.1629  0.2051  0.2051

 Free energy of the ion-electron system (eV)
  ---------------------------------------------------
  alpha Z        PSCENC =       350.82459594
  Ewald energy   TEWEN  =     73410.14867536
  -Hartree energ DENC   =    -85596.32076174
  -exchange      EXHF   =         0.00000000
  -V(xc)+E(xc)   XCENC  =        40.75666417
  PAW double counting   =     13732.48822241   -13313.45284346
  entropy T*S    EENTRO =        -0.00428610
  eigenvalues    EBANDS =      -441.92473972
  atomic energy  EATOM  =     11693.69420960
  Solvation  Ediel_sol  =         0.00000000
  ---------------------------------------------------
  free energy    TOTEN  =      -123.79026354 eV

  energy without entropy =     -123.78597744  energy(sigma->0) =     -123.78883484


--------------------------------------------------------------------------------------------------------




--------------------------------------- Iteration      1(   9)  ---------------------------------------


    POTLOK:  cpu time    0.0190: real time    0.0242
    SETDIJ:  cpu time    0.0023: real time    0.0023
     EDDAV:  cpu time    9.0164: real time    9.0166
       DOS:  cpu time    0.0057: real time    0.0057
    CHARGE:  cpu time    0.3392: real time    0.3392
    MIXING:  cpu time    0.0010: real time    0.0010
    --------------------------------------------
      LOOP:  cpu time    9.3836: real time    9.3890

 eigenvalue-minimisations  : 16576
 total energy-change (2. order) : 0.1504637E+02  (-0.3837249E+01)
 number of electron     160.0000135 magnetization 
 augmentation part       50.1693804 magnetization 

 Broyden mixing:
  rms(total) = 0.29940E+01    rms(broyden)= 0.29939E+01
  rms(prec ) = 0.42465E+01
  weight for this iteration     100.00

 eigenvalues of (default mixing * dielectric matrix)
  average eigenvalue GAMMA=   0.8324
  2.0807  0.8141  0.2836  0.1514

 Free energy of the ion-electron system (eV)
  ---------------------------------------------------
  alpha Z        PSCENC =       350.82459594
  Ewald energy   TEWEN  =     73410.14867536
  -Hartree energ DENC   =    -85425.67163562
  -exchange      EXHF   =         0.00000000
  -V(xc)+E(xc)   XCENC  =        39.92488011
  PAW double counting   =     14434.97002955   -14024.83233394
  entropy T*S    EENTRO =        -0.00628124
  eigenvalues    EBANDS =      -587.79603769
  atomic energy  EATOM  =     11693.69420960
  Solvation  Ediel_sol  =         0.00000000
  ---------------------------------------------------
  free energy    TOTEN  =      -108.74389794 eV

  energy without entropy =     -108.73761669  energy(sigma->0) =     -108.74180419


--------------------------------------------------------------------------------------------------------




--------------------------------------- Iteration      1(  10)  ---------------------------------------


    POTLOK:  cpu time    0.0181: real time    0.0181
    SETDIJ:  cpu time    0.0023: real time    0.0023
     EDDAV:  cpu time    7.8165: real time    7.8167
       DOS:  cpu time    0.0056: real time    0.0056
    CHARGE:  cpu time    0.3508: real time    0.3508
    MIXING:  cpu time    0.0010: real time    0.0010
    --------------------------------------------
      LOOP:  cpu time    8.1942: real time    8.1945

 eigenvalue-minimisations  : 14016
 total energy-change (2. order) : 0.1143514E+02  (-0.2981599E+01)
 number of electron     160.0000123 magnetization 
 augmentation part       50.4202770 magnetization 

 Broyden mixing:
  rms(total) = 0.21331E+01    rms(broyden)= 0.21329E+01
  rms(prec ) = 0.26702E+01
  weight for this iteration     100.00

 eigenvalues of (default mixing * dielectric matrix)
  average eigenvalue GAMMA=   0.7213
  2.0055  0.9474  0.1558  0.2817  0.2159

 Free energy of the ion-electron system (eV)
  ---------------------------------------------------
  alpha Z        PSCENC =       350.82459594
  Ewald energy   TEWEN  =     73410.14867536
  -Hartree energ DENC   =    -85447.77136517
  -exchange      EXHF   =         0.00000000
  -V(xc)+E(xc)   XCENC  =        40.88317804
  PAW double counting   =     14565.10639246   -14152.51809298
  entropy T*S    EENTRO =        -0.00557579
  eigenvalues    EBANDS =      -557.67077200
  atomic energy  EATOM  =     11693.69420960
  Solvation  Ediel_sol  =         0.00000000
  ---------------------------------------------------
  free energy    TOTEN  =       -97.30875454 eV

  energy without entropy =      -97.30317875  energy(sigma->0) =      -97.30689595


--------------------------------------------------------------------------------------------------------




--------------------------------------- Iteration      1(  11)  ---------------------------------------


    POTLOK:  cpu time    0.0179: real time    0.0180
    SETDIJ:  cpu time    0.0023: real time    0.0023
     EDDAV:  cpu time    8.0365: real time    8.0368
       DOS:  cpu time    0.0058: real time    0.0058
    CHARGE:  cpu time    0.3663: real time    0.3663
    MIXING:  cpu time    0.0013: real time    0.0013
    --------------------------------------------
      LOOP:  cpu time    8.4301: real time    8.4305

 eigenvalue-minimisations  : 14448
 total energy-change (2. order) : 0.4979206E+01  (-0.1744370E+01)
 number of electron     160.0000123 magnetization 
 augmentation part       50.1770576 magnetization 

 Broyden mixing:
  rms(total) = 0.95940E+00    rms(broyden)= 0.95919E+00
  rms(prec ) = 0.11403E+01
  weight for this iteration     100.00

 eigenvalues of (default mixing * dielectric matrix)
  average eigenvalue GAMMA=   0.6855
  2.0605  0.6806  0.6806  0.3286  0.1604  0.2023

 Free energy of the ion-electron system (eV)
  ---------------------------------------------------
  alpha Z        PSCENC =       350.82459594
  Ewald energy   TEWEN  =     73410.14867536
  -Hartree energ DENC   =    -85452.63820855
  -exchange      EXHF   =         0.00000000
  -V(xc)+E(xc)   XCENC  =        40.95199605
  PAW double counting   =     14579.75896644   -14166.43866169
  entropy T*S    EENTRO =        -0.03362699
  eigenvalues    EBANDS =      -548.59749466
  atomic energy  EATOM  =     11693.69420960
  Solvation  Ediel_sol  =         0.00000000
  ---------------------------------------------------
  free energy    TOTEN  =       -92.32954849 eV

  energy without entropy =      -92.29592150  energy(sigma->0) =      -92.31833950


--------------------------------------------------------------------------------------------------------




--------------------------------------- Iteration      1(  12)  ---------------------------------------


    POTLOK:  cpu time    0.0191: real time    0.0194
    SETDIJ:  cpu time    0.0024: real time    0.0024
     EDDAV:  cpu time    7.8372: real time    7.8375
       DOS:  cpu time    0.0058: real time    0.0058
    CHARGE:  cpu time    0.3675: real time    0.3675
    MIXING:  cpu time    0.0011: real time    0.0011
    --------------------------------------------
      LOOP:  cpu time    8.2332: real time    8.2337

 eigenvalue-minimisations  : 14032
 total energy-change (2. order) : 0.3704591E+00  (-0.2550799E+00)
 number of electron     160.0000127 magnetization 
 augmentation part       50.1814456 magnetization 

 Broyden mixing:
  rms(total) = 0.61381E+00    rms(broyden)= 0.61378E+00
  rms(prec ) = 0.63030E+00
  weight for this iteration     100.00

 eigenvalues of (default mixing * dielectric matrix)
  average eigenvalue GAMMA=   0.6353
  2.0668  0.7110  0.7110  0.1588  0.2867  0.2867  0.2264

 Free energy of the ion-electron system (eV)
  ---------------------------------------------------
  alpha Z        PSCENC =       350.82459594
  Ewald energy   TEWEN  =     73410.14867536
  -Hartree energ DENC   =    -85448.69055972
  -exchange      EXHF   =         0.00000000
  -V(xc)+E(xc)   XCENC  =        40.85189655
  PAW double counting   =     14576.54066275   -14163.72662038
  entropy T*S    EENTRO =        -0.00352382
  eigenvalues    EBANDS =      -551.59842571
  atomic energy  EATOM  =     11693.69420960
  Solvation  Ediel_sol  =         0.00000000
  ---------------------------------------------------
  free energy    TOTEN  =       -91.95908943 eV

  energy without entropy =      -91.95556560  energy(sigma->0) =      -91.95791482


--------------------------------------------------------------------------------------------------------




--------------------------------------- Iteration      1(  13)  ---------------------------------------


    POTLOK:  cpu time    0.0180: real time    0.0198
    SETDIJ:  cpu time    0.0023: real time    0.0023
     EDDAV:  cpu time    7.3381: real time    7.3383
       DOS:  cpu time    0.0058: real time    0.0058
    CHARGE:  cpu time    0.3646: real time    0.3646
    MIXING:  cpu time    0.0012: real time    0.0012
    --------------------------------------------
      LOOP:  cpu time    7.7300: real time    7.7319

 eigenvalue-minimisations  : 12920
 total energy-change (2. order) : 0.6714316E-01  (-0.4154204E-01)
 number of electron     160.0000126 magnetization 
 augmentation part       50.1855894 magnetization 

 Broyden mixing:
  rms(total) = 0.45974E+00    rms(broyden)= 0.45973E+00
  rms(prec ) = 0.48799E+00
  weight for this iteration     100.00

 eigenvalues of (default mixing * dielectric matrix)
  average eigenvalue GAMMA=   0.6894
  2.0409  0.9895  0.9895  0.4075  0.4075  0.3188  0.1596  0.2019

 Free energy of the ion-electron system (eV)
  ---------------------------------------------------
  alpha Z        PSCENC =       350.82459594
  Ewald energy   TEWEN  =     73410.14867536
  -Hartree energ DENC   =    -85447.37683603
  -exchange      EXHF   =         0.00000000
  -V(xc)+E(xc)   XCENC  =        40.85534572
  PAW double counting   =     14540.27203650   -14127.38969022
  entropy T*S    EENTRO =        -0.00998634
  eigenvalues    EBANDS =      -552.91029679
  atomic energy  EATOM  =     11693.69420960
  Solvation  Ediel_sol  =         0.00000000
  ---------------------------------------------------
  free energy    TOTEN  =       -91.89194627 eV

  energy without entropy =      -91.88195993  energy(sigma->0) =      -91.88861749


--------------------------------------------------------------------------------------------------------




--------------------------------------- Iteration      1(  14)  ---------------------------------------


    POTLOK:  cpu time    0.0181: real time    0.0181
    SETDIJ:  cpu time    0.0023: real time    0.0023
     EDDAV:  cpu time    6.5675: real time    6.5677
       DOS:  cpu time    0.0056: real time    0.0056
    CHARGE:  cpu time    0.3668: real time    0.3668
    MIXING:  cpu time    0.0013: real time    0.0013
    --------------------------------------------
      LOOP:  cpu time    6.9616: real time    6.9618

 eigenvalue-minimisations  : 11224
 total energy-change (2. order) : 0.2408457E-01  (-0.1820833E-01)
 number of electron     160.0000124 magnetization 
 augmentation part       50.1774086 magnetization 

 Broyden mixing:
  rms(total) = 0.40136E+00    rms(broyden)= 0.40135E+00
  rms(prec ) = 0.41380E+00
  weight for this iteration     100.00

 eigenvalues of (default mixing * dielectric matrix)
  average eigenvalue GAMMA=   0.7809
  2.1106  1.4221  1.4221  0.6426  0.3871  0.3871  0.1594  0.2899  0.2076

 Free energy of the ion-electron system (eV)
  ---------------------------------------------------
  alpha Z        PSCENC =       350.82459594
  Ewald energy   TEWEN  =     73410.14867536
  -Hartree energ DENC   =    -85447.82479927
  -exchange      EXHF   =         0.00000000
  -V(xc)+E(xc)   XCENC  =        40.93344735
  PAW double counting   =     14441.30699577   -14028.00838337
  entropy T*S    EENTRO =        -0.01008164
  eigenvalues    EBANDS =      -552.93252145
  atomic energy  EATOM  =     11693.69420960
  Solvation  Ediel_sol  =         0.00000000
  ---------------------------------------------------
  free energy    TOTEN  =       -91.86786170 eV

  energy without entropy =      -91.85778006  energy(sigma->0) =      -91.86450115


--------------------------------------------------------------------------------------------------------




--------------------------------------- Iteration      1(  15)  ---------------------------------------


    POTLOK:  cpu time    0.0182: real time    0.0182
    SETDIJ:  cpu time    0.0023: real time    0.0023
     EDDAV:  cpu time    7.0606: real time    7.0609
       DOS:  cpu time    0.0057: real time    0.0057
    CHARGE:  cpu time    0.3608: real time    0.3608
    MIXING:  cpu time    0.0013: real time    0.0013
    --------------------------------------------
      LOOP:  cpu time    7.4490: real time    7.4493

 eigenvalue-minimisations  : 12312
 total energy-change (2. order) :-0.6950386E-01  (-0.2916904E-01)
 number of electron     160.0000123 magnetization 
 augmentation part       50.1208421 magnetization 

 Broyden mixing:
  rms(total) = 0.39034E+00    rms(broyden)= 0.39032E+00
  rms(prec ) = 0.54668E+00
  weight for this iteration     100.00

 eigenvalues of (default mixing * dielectric matrix)
  average eigenvalue GAMMA=   0.7910
  2.1622  1.3901  1.3901  1.0559  0.4476  0.4476  0.1594  0.2060  0.3445  0.3063

 Free energy of the ion-electron system (eV)
  ---------------------------------------------------
  alpha Z        PSCENC =       350.82459594
  Ewald energy   TEWEN  =     73410.14867536
  -Hartree energ DENC   =    -85456.46476453
  -exchange      EXHF   =         0.00000000
  -V(xc)+E(xc)   XCENC  =        41.08644851
  PAW double counting   =     14317.55288088   -13903.75204035
  entropy T*S    EENTRO =        -0.01978273
  eigenvalues    EBANDS =      -545.00758823
  atomic energy  EATOM  =     11693.69420960
  Solvation  Ediel_sol  =         0.00000000
  ---------------------------------------------------
  free energy    TOTEN  =       -91.93736555 eV

  energy without entropy =      -91.91758282  energy(sigma->0) =      -91.93077131


--------------------------------------------------------------------------------------------------------




--------------------------------------- Iteration      1(  16)  ---------------------------------------


    POTLOK:  cpu time    0.0184: real time    0.0185
    SETDIJ:  cpu time    0.0023: real time    0.0023
     EDDAV:  cpu time    6.9304: real time    6.9306
       DOS:  cpu time    0.0058: real time    0.0058
    CHARGE:  cpu time    0.3604: real time    0.3604
    MIXING:  cpu time    0.0015: real time    0.0015
    --------------------------------------------
      LOOP:  cpu time    7.3188: real time    7.3190

 eigenvalue-minimisations  : 12000
 total energy-change (2. order) : 0.1076203E+00  (-0.3091383E-01)
 number of electron     160.0000125 magnetization 
 augmentation part       50.0798061 magnetization 

 Broyden mixing:
  rms(total) = 0.15765E+00    rms(broyden)= 0.15762E+00
  rms(prec ) = 0.18969E+00
  weight for this iteration     100.00

 eigenvalues of (default mixing * dielectric matrix)
  average eigenvalue GAMMA=   0.7548
  1.7103  1.7103  1.5151  0.7123  0.7123  0.4806  0.4806  0.1594  0.2061  0.3079
  0.3079

 Free energy of the ion-electron system (eV)
  ---------------------------------------------------
  alpha Z        PSCENC =       350.82459594
  Ewald energy   TEWEN  =     73410.14867536
  -Hartree energ DENC   =    -85463.88706880
  -exchange      EXHF   =         0.00000000
  -V(xc)+E(xc)   XCENC  =        41.14327298
  PAW double counting   =     14311.15562176   -13897.23210375
  entropy T*S    EENTRO =        -0.00809843
  eigenvalues    EBANDS =      -537.66884993
  atomic energy  EATOM  =     11693.69420960
  Solvation  Ediel_sol  =         0.00000000
  ---------------------------------------------------
  free energy    TOTEN  =       -91.82974528 eV

  energy without entropy =      -91.82164685  energy(sigma->0) =      -91.82704580


--------------------------------------------------------------------------------------------------------




--------------------------------------- Iteration      1(  17)  ---------------------------------------


    POTLOK:  cpu time    0.0187: real time    0.0239
    SETDIJ:  cpu time    0.0023: real time    0.0023
     EDDAV:  cpu time    7.6102: real time    7.6104
       DOS:  cpu time    0.0057: real time    0.0057
    CHARGE:  cpu time    0.3593: real time    0.3593
    MIXING:  cpu time    0.0015: real time    0.0015
    --------------------------------------------
      LOOP:  cpu time    7.9977: real time    8.0031

 eigenvalue-minimisations  : 13528
 total energy-change (2. order) : 0.2632772E-01  (-0.4816296E-02)
 number of electron     160.0000124 magnetization 
 augmentation part       50.0704951 magnetization 

 Broyden mixing:
  rms(total) = 0.61990E-01    rms(broyden)= 0.61974E-01
  rms(prec ) = 0.66041E-01
  weight for this iteration     100.00

 eigenvalues of (default mixing * dielectric matrix)
  average eigenvalue GAMMA=   0.7357
  1.8292  1.6040  1.6040  0.6510  0.6510  0.5332  0.5332  0.1594  0.4204  0.2061
  0.3185  0.3185

 Free energy of the ion-electron system (eV)
  ---------------------------------------------------
  alpha Z        PSCENC =       350.82459594
  Ewald energy   TEWEN  =     73410.14867536
  -Hartree energ DENC   =    -85464.13069376
  -exchange      EXHF   =         0.00000000
  -V(xc)+E(xc)   XCENC  =        41.17175283
  PAW double counting   =     14290.92722711   -13876.78493790
  entropy T*S    EENTRO =        -0.01062786
  eigenvalues    EBANDS =      -537.64361889
  atomic energy  EATOM  =     11693.69420960
  Solvation  Ediel_sol  =         0.00000000
  ---------------------------------------------------
  free energy    TOTEN  =       -91.80341756 eV

  energy without entropy =      -91.79278970  energy(sigma->0) =      -91.79987494


--------------------------------------------------------------------------------------------------------




--------------------------------------- Iteration      1(  18)  ---------------------------------------


    POTLOK:  cpu time    0.0184: real time    0.0184
    SETDIJ:  cpu time    0.0023: real time    0.0023
     EDDAV:  cpu time    7.0873: real time    7.0875
       DOS:  cpu time    0.0058: real time    0.0058
    CHARGE:  cpu time    0.3609: real time    0.3609
    MIXING:  cpu time    0.0018: real time    0.0018
    --------------------------------------------
      LOOP:  cpu time    7.4765: real time    7.4768

 eigenvalue-minimisations  : 12360
 total energy-change (2. order) : 0.1888936E-02  (-0.8879452E-03)
 number of electron     160.0000124 magnetization 
 augmentation part       50.0704603 magnetization 

 Broyden mixing:
  rms(total) = 0.48901E-01    rms(broyden)= 0.48898E-01
  rms(prec ) = 0.51886E-01
  weight for this iteration     100.00

 eigenvalues of (default mixing * dielectric matrix)
  average eigenvalue GAMMA=   0.7788
  2.2485  1.5894  1.5894  0.8877  0.8877  0.6705  0.4603  0.4603  0.1594  0.2061
  0.2980  0.3337  0.3337

 Free energy of the ion-electron system (eV)
  ---------------------------------------------------
  alpha Z        PSCENC =       350.82459594
  Ewald energy   TEWEN  =     73410.14867536
  -Hartree energ DENC   =    -85464.61133606
  -exchange      EXHF   =         0.00000000
  -V(xc)+E(xc)   XCENC  =        41.18009980
  PAW double counting   =     14294.36159028   -13880.21609415
  entropy T*S    EENTRO =        -0.00921212
  eigenvalues    EBANDS =      -537.17405727
  atomic energy  EATOM  =     11693.69420960
  Solvation  Ediel_sol  =         0.00000000
  ---------------------------------------------------
  free energy    TOTEN  =       -91.80152862 eV

[...]
     80      -0.1564      1.44409
     81      -0.0703      0.73745
     82      -0.0331      0.45498
     83       0.0912     -0.04220
     84       0.1709     -0.06604
     85       0.2617     -0.02754
     86       0.3861     -0.00303
     87       1.8698     -0.00000
     88       1.9418     -0.00000
     89       2.0128     -0.00000
     90       2.5133     -0.00000
     91       2.5475     -0.00000
     92       2.6534     -0.00000
     93       3.5979     -0.00000
     94       3.6958     -0.00000
     95       4.0329     -0.00000
     96       5.1264     -0.00000

 k-point    51 :      -0.4375    0.4375    0.0000
  band No.  band energies     occupation 
      1      -7.7070      2.00000
      2      -7.6547      2.00000
      3      -6.6641      2.00000
      4      -6.6271      2.00000
      5      -6.2467      2.00000
      6      -5.9773      2.00000
      7      -5.8807      2.00000
      8      -5.8268      2.00000
      9      -5.7946      2.00000
     10      -5.6758      2.00000
     11      -5.6087      2.00000
     12      -5.5390      2.00000
     13      -5.4908      2.00000
     14      -5.3397      2.00000
     15      -5.1934      2.00000
     16      -5.1559      2.00000
     17      -5.0784      2.00000
     18      -5.0649      2.00000
     19      -4.9444      2.00000
     20      -4.8258      2.00000
     21      -4.7412      2.00000
     22      -4.6654      2.00000
     23      -4.6018      2.00000
     24      -4.5166      2.00000
     25      -4.5028      2.00000
     26      -4.4246      2.00000
     27      -4.3630      2.00000
     28      -4.3237      2.00000
     29      -4.0421      2.00000
     30      -3.9637      2.00000
     31      -3.9200      2.00000
     32      -3.8665      2.00000
     33      -3.8139      2.00000
     34      -3.7663      2.00000
     35      -3.6352      2.00000
     36      -3.6221      2.00000
     37      -3.4740      2.00000
     38      -3.4257      2.00000
     39      -3.3749      2.00000
     40      -3.3391      2.00000
     41      -3.2574      2.00000
     42      -3.1209      2.00000
     43      -3.0914      2.00000
     44      -3.0838      2.00000
     45      -3.0090      2.00000
     46      -2.9862      2.00000
     47      -2.9512      2.00000
     48      -2.9223      2.00000
     49      -2.8550      2.00000
     50      -2.7666      2.00000
     51      -2.6924      2.00000
     52      -2.6086      2.00000
     53      -2.4883      2.00000
     54      -2.4060      2.00000
     55      -2.2563      2.00000
     56      -2.2006      2.00000
     57      -2.1747      2.00000
     58      -2.1186      2.00000
     59      -2.0147      2.00000
     60      -1.8920      2.00000
     61      -1.7609      2.00000
     62      -1.7197      2.00000
     63      -1.5972      2.00000
     64      -1.5403      2.00000
     65      -1.5021      2.00000
     66      -1.4193      2.00000
     67      -1.3411      2.00000
     68      -1.3297      2.00000
     69      -1.2425      2.00000
     70      -1.1553      2.00000
     71      -1.0937      2.00000
     72      -1.0093      2.00000
     73      -0.9700      2.00000
     74      -0.8860      2.00000
     75      -0.6680      2.00046
     76      -0.5432      2.00774
     77      -0.5277      2.01029
     78      -0.4273      2.04360
     79      -0.3118      2.05917
     80      -0.2365      1.90054
     81      -0.1573      1.45067
     82      -0.0421      0.51919
     83      -0.0252      0.40162
     84       0.1540     -0.07008
     85       0.2944     -0.01702
     86       0.3332     -0.00873
     87       0.9367     -0.00000
     88       1.2937     -0.00000
     89       2.2299     -0.00000
     90       2.2798     -0.00000
     91       2.3974     -0.00000
     92       3.0576     -0.00000
     93       3.9818     -0.00000
     94       4.1856     -0.00000
     95       4.7156     -0.00000
     96       4.7440     -0.00000

 k-point    52 :      -0.4375    0.1250    0.0000
  band No.  band energies     occupation 
      1      -7.7150      2.00000
      2      -7.6458      2.00000
      3      -6.6717      2.00000
      4      -6.6204      2.00000
      5      -6.2477      2.00000
      6      -5.9820      2.00000
      7      -5.8785      2.00000
      8      -5.8357      2.00000
      9      -5.7845      2.00000
     10      -5.6773      2.00000
     11      -5.6024      2.00000
     12      -5.5375      2.00000
     13      -5.4899      2.00000
     14      -5.3414      2.00000
     15      -5.1898      2.00000
     16      -5.1513      2.00000
     17      -5.0929      2.00000
     18      -5.0637      2.00000
     19      -4.9393      2.00000
     20      -4.8168      2.00000
     21      -4.7528      2.00000
     22      -4.6677      2.00000
     23      -4.5822      2.00000
     24      -4.5192      2.00000
     25      -4.5019      2.00000
     26      -4.4475      2.00000
     27      -4.3574      2.00000
     28      -4.3169      2.00000
     29      -4.0713      2.00000
     30      -3.9727      2.00000
     31      -3.9127      2.00000
     32      -3.8642      2.00000
     33      -3.8109      2.00000
     34      -3.7410      2.00000
     35      -3.6577      2.00000
     36      -3.6126      2.00000
     37      -3.4882      2.00000
     38      -3.4157      2.00000
     39      -3.3687      2.00000
     40      -3.3303      2.00000
     41      -3.2470      2.00000
     42      -3.1432      2.00000
     43      -3.1034      2.00000
     44      -3.0686      2.00000
     45      -3.0138      2.00000
     46      -2.9636      2.00000
     47      -2.9418      2.00000
     48      -2.9288      2.00000
     49      -2.8685      2.00000
     50      -2.7656      2.00000
     51      -2.6782      2.00000
     52      -2.6251      2.00000
     53      -2.5224      2.00000
     54      -2.3773      2.00000
     55      -2.2557      2.00000
     56      -2.2017      2.00000
     57      -2.1504      2.00000
     58      -2.1192      2.00000
     59      -2.0091      2.00000
     60      -1.9024      2.00000
     61      -1.7387      2.00000
     62      -1.7134      2.00000
     63      -1.6241      2.00000
     64      -1.6058      2.00000
     65      -1.4529      2.00000
     66      -1.4101      2.00000
     67      -1.3624      2.00000
     68      -1.2786      2.00000
     69      -1.2455      2.00000
     70      -1.1502      2.00000
     71      -1.0911      2.00000
     72      -1.0310      2.00000
     73      -1.0149      2.00000
     74      -0.8652      2.00000
     75      -0.6515      2.00071
     76      -0.6165      2.00166
     77      -0.4913      2.01886
     78      -0.3928      2.05920
     79      -0.3054      2.05384
     80      -0.2424      1.92201
     81      -0.1842      1.63606
     82      -0.0470      0.55545
     83       0.0233      0.13770
     84       0.1180     -0.06514
     85       0.2740     -0.02319
     86       0.3563     -0.00561
     87       0.9418     -0.00000
     88       1.2933     -0.00000
     89       2.2323     -0.00000
     90       2.3243     -0.00000
     91       2.3512     -0.00000
     92       3.0618     -0.00000
     93       3.9717     -0.00000
     94       4.1900     -0.00000
     95       4.6946     -0.00000
     96       4.7644     -0.00000


--------------------------------------------------------------------------------------------------------


 soft charge-density along one line, spin component           1
         0         1         2         3         4         5         6         7         8         9
 total charge-density along one line
 
 pseudopotential strength for first ion, spin component:           1
 -7.811   0.001  -0.001  -0.008  -0.000  -7.963   0.001  -0.001
  0.001  -7.791  -0.000   0.001  -0.007   0.001  -7.943  -0.000
 -0.001  -0.000  -7.809   0.001   0.001  -0.001  -0.000  -7.960
 -0.008   0.001   0.001  -7.791   0.001  -0.008   0.001   0.001
 -0.000  -0.007   0.001   0.001  -7.811  -0.000  -0.006   0.001
 -7.963   0.001  -0.001  -0.008  -0.000  -8.098   0.001  -0.001
  0.001  -7.943  -0.000   0.001  -0.006   0.001  -8.078  -0.000
 -0.001  -0.000  -7.960   0.001   0.001  -0.001  -0.000  -8.096
 -0.008   0.001   0.001  -7.943   0.001  -0.007   0.001   0.001
 -0.000  -0.006   0.001   0.001  -7.963  -0.000  -0.006   0.001
 -0.000   0.000  -0.002  -0.000   0.000  -0.000   0.000  -0.002
 -0.000   0.000  -0.003  -0.001   0.000  -0.000   0.000  -0.003
 -0.000  -0.002  -0.000   0.000  -0.000  -0.000  -0.002  -0.000
  0.000   0.000  -0.003  -0.000  -0.000   0.000   0.000  -0.003
 -0.000   0.000   0.000  -0.002  -0.000  -0.000   0.000   0.000
 -0.000  -0.003  -0.000   0.000  -0.000  -0.000  -0.003  -0.000
  0.000   0.000  -0.004  -0.000  -0.000   0.000   0.000  -0.004
 -0.000   0.000   0.000  -0.003  -0.000  -0.000   0.000   0.000
 total augmentation occupancy for first ion, spin component:           1
  6.181   0.016  -0.024   0.213  -0.006  -4.183  -0.013   0.018  -0.315   0.005   0.002  -0.000   0.001  -0.002   0.001  -0.000
  0.016   6.226  -0.009   0.003   0.233  -0.013  -4.011   0.007  -0.002  -0.330  -0.002   0.001   0.006  -0.000   0.000  -0.002
 -0.024  -0.009   6.121   0.016   0.014   0.018   0.007  -4.213  -0.013  -0.011   0.113  -0.036  -0.001   0.025   0.002   0.000
  0.213   0.003   0.016   6.222   0.016  -0.315  -0.002  -0.013  -4.009  -0.013   0.003  -0.001   0.000   0.001   0.006  -0.000
 -0.006   0.233   0.014   0.016   6.174   0.005  -0.330  -0.010  -0.013  -4.178  -0.001   0.000   0.002   0.001   0.001  -0.000
 -4.183  -0.013   0.018  -0.315   0.005   4.096   0.010  -0.014   0.391  -0.004  -0.001  -0.001  -0.001   0.002  -0.003   0.000
 -0.013  -4.011   0.007  -0.002  -0.330   0.010   3.750  -0.006   0.002   0.403   0.000   0.000  -0.012   0.000  -0.000   0.001
  0.018   0.007  -4.213  -0.013  -0.010  -0.014  -0.006   4.190   0.010   0.008  -0.121   0.036   0.001  -0.026  -0.001  -0.000
 -0.315  -0.002  -0.013  -4.009  -0.013   0.391   0.002   0.010   3.748   0.010  -0.000  -0.000  -0.000  -0.000  -0.012   0.000
  0.005  -0.330  -0.011  -0.013  -4.178  -0.004   0.403   0.008   0.010   4.092   0.000   0.001  -0.003  -0.001  -0.001   0.000
  0.002  -0.002   0.113   0.003  -0.001  -0.001   0.000  -0.121  -0.000   0.000   3.047  -0.838   0.000  -0.020  -0.000   0.000
 -0.000   0.001  -0.036  -0.001   0.000  -0.001   0.000   0.036  -0.000   0.001  -0.838   0.254  -0.000   0.006   0.000  -0.000
  0.001   0.006  -0.001   0.000   0.002  -0.001  -0.012   0.001  -0.000  -0.003   0.000  -0.000   0.250  -0.000  -0.000  -0.008
 -0.002  -0.000   0.025   0.001   0.001   0.002   0.000  -0.026  -0.000  -0.001  -0.020   0.006  -0.000   0.237   0.000   0.000
  0.001   0.000   0.002   0.006   0.001  -0.003  -0.000  -0.001  -0.012  -0.001  -0.000   0.000  -0.000   0.000   0.250  -0.000
 -0.000  -0.002   0.000  -0.000  -0.000   0.000   0.001  -0.000   0.000   0.000   0.000  -0.000  -0.008   0.000  -0.000   0.000
  0.000   0.000  -0.003  -0.000  -0.000  -0.000  -0.000   0.001   0.000   0.000   0.001  -0.000   0.000  -0.008  -0.000  -0.000
 -0.000  -0.000  -0.000  -0.002  -0.000   0.000   0.000   0.000   0.001   0.000  -0.000   0.000  -0.000  -0.000  -0.008   0.000


------------------------ aborting loop because EDIFF is reached ----------------------------------------



 DIPCOR: dipole corrections for dipol
 direction  3 min pos   242,
 dipolmoment           0.000000      0.000000      0.020496 electrons x Angstroem
 Tr[quadrupol]      -940.083511

 energy correction for charged system         0.000000 eV
 dipol+quadrupol energy correction            0.000053 eV
 added-field ion interaction          0.000000 eV  (added to PSCEN)

 
  *************** adding dipol energy to TOTEN NOW **************** 
    CHARGE:  cpu time    0.3591: real time    0.3591
    FORLOC:  cpu time    0.0043: real time    0.0043
    FORNL :  cpu time    1.3519: real time    1.3520
    STRESS:  cpu time    4.0737: real time    4.0738
    FORCOR:  cpu time    0.0230: real time    0.0230
    FORHAR:  cpu time    0.0082: real time    0.0082
    MIXING:  cpu time    0.0021: real time    0.0021
    OFIELD:  cpu time    0.0000: real time    0.0000

  FORCE on cell =-STRESS in cart. coord.  units (eV):
  Direction    XX          YY          ZZ          XY          YZ          ZX
  --------------------------------------------------------------------------------------
  Alpha Z   350.82460   350.82460   350.82460
  Ewald   82328.29956 82328.34653-91246.51338     0.04068     0.06808    -0.11792
  Hartree 84783.44228 84783.43092-84089.93024    -0.00984     0.03832    -0.06637
  E(xc)    -710.38976  -710.37798  -715.21685     0.01029     0.00713    -0.01235
  Local  ************************172439.98842     0.11264     0.05347    -0.09270
  n-local    66.99804    60.07960    46.19999     2.03232    -0.49455    -0.08317
  augment   833.97267   833.90859   862.08444    -0.05703    -0.03733     0.06339
  Kinetic  2285.45042  2280.82715  2356.00218     1.18874    -0.38575    -0.02150
  Fock        0.00000     0.00000     0.00000     0.00000     0.00000     0.00000
  -------------------------------------------------------------------------------------
  Total      -7.78242    -7.76731     3.43913     0.01309    -0.04530     0.07845
  in kB     -17.48742   -17.45346     7.72787     0.02941    -0.10178     0.17629
  external pressure =       -9.07 kB  Pullay stress =        0.00 kB


 VOLUME and BASIS-vectors are now :
 -----------------------------------------------------------------------------
  energy-cutoff  :      350.00
  volume of cell :      713.02
      direct lattice vectors                 reciprocal lattice vectors
     5.543717165  0.000000000  0.000000000     0.180384383 -0.104144972  0.000000000
     2.771858582  4.800999896  0.000000000     0.000000000  0.208289944  0.000000000
     0.000000000  0.000000000 26.789639166     0.000000000  0.000000000  0.037327864

  length of vectors
     5.543717165  5.543717165 26.789639166     0.208289944  0.208289944  0.037327864


 FORCES acting on ions
    electron-ion (+dipol)            ewald-force                    non-local-force                 convergence-correction
 -----------------------------------------------------------------------------------------------
   0.290E+00 -.168E+00 -.964E+03   -.284E+00 0.164E+00 0.964E+03   -.572E-02 0.330E-02 0.302E+00   0.711E-02 -.411E-02 0.877E-01
   0.250E+00 -.144E+00 0.243E+04   -.232E+00 0.134E+00 -.243E+04   0.167E-01 -.965E-02 -.300E+00   -.447E-02 0.258E-02 -.381E-01
   -.292E+00 -.194E+00 0.270E+04   0.258E+00 0.149E+00 -.270E+04   -.775E-03 0.668E-01 -.101E+01   0.521E-02 -.710E-02 -.358E-01
   0.221E-01 0.350E+00 0.270E+04   -.110E-11 -.298E+00 -.270E+04   -.583E-01 -.327E-01 -.101E+01   0.876E-02 -.956E-03 -.358E-01
   -.329E-01 0.190E-01 0.270E+04   -.105E-11 -.654E-12 -.270E+04   0.631E-01 -.364E-01 -.901E+00   -.858E-02 0.495E-02 -.409E-01
   -.503E+01 0.291E+01 0.939E+03   0.522E+01 -.301E+01 -.938E+03   -.222E-01 0.128E-01 0.115E+00   0.745E-02 -.430E-02 -.279E-01
   0.502E+01 -.261E+01 0.944E+03   -.522E+01 0.269E+01 -.944E+03   0.163E-01 -.187E-01 0.171E+00   -.757E-02 -.685E-03 -.324E-01
   -.478E+01 0.276E+01 0.938E+03   0.494E+01 -.285E+01 -.938E+03   -.121E-01 0.698E-02 0.150E+00   0.306E-02 -.177E-02 -.259E-01
   0.477E+01 -.304E+01 0.944E+03   -.494E+01 0.317E+01 -.944E+03   0.243E-01 -.482E-02 0.171E+00   -.319E-02 0.690E-02 -.324E-01
   -.352E-01 0.203E-01 -.877E+03   -.284E-11 -.177E-11 0.876E+03   0.550E-01 -.318E-01 0.521E+00   0.740E-02 -.427E-02 0.757E-01
   0.434E-01 0.331E+00 -.877E+03   -.285E-11 -.298E+00 0.876E+03   -.500E-01 -.483E-01 0.424E+00   -.733E-02 0.301E-02 0.691E-01
   -.265E+00 -.203E+00 -.877E+03   0.258E+00 0.149E+00 0.876E+03   0.168E-01 0.674E-01 0.424E+00   -.627E-02 0.484E-02 0.691E-01
   -.455E+01 -.261E+01 -.267E+04   0.473E+01 0.273E+01 0.267E+04   -.777E-01 -.266E-01 0.100E+01   -.148E-02 -.113E-01 0.141E+00
   0.456E+01 -.263E+01 -.267E+04   -.473E+01 0.273E+01 0.267E+04   0.658E-01 -.380E-01 0.100E+01   0.142E-02 -.819E-03 0.133E+00
   -.147E-01 0.524E+01 -.267E+04   0.621E-12 -.546E+01 0.267E+04   -.158E-01 0.806E-01 0.100E+01   0.905E-02 0.693E-02 0.141E+00
   0.240E-01 -.138E-01 -.267E+04   0.106E-11 0.654E-12 0.267E+04   0.858E-02 -.495E-02 0.871E+00   -.897E-02 0.518E-02 0.141E+00
 -----------------------------------------------------------------------------------------------
   -.256E-01 0.148E-01 -.351E+01   -.345E-13 -.501E-14 0.273E-11   0.242E-01 -.140E-01 0.293E+01   0.159E-02 -.920E-03 0.588E+00
 
 
 POSITION                                       TOTAL-FORCE (eV/Angst)
 -----------------------------------------------------------------------------------
      6.92965      4.00083     14.56863         0.007834     -0.004523      0.198790
      2.77186      0.00000     10.00000         0.029676     -0.017134      0.766170
      0.00000      0.00000     10.00000        -0.029771      0.014427     -0.500928
      1.38593      2.40050     10.00000        -0.027379      0.018569     -0.500928
      4.15779      2.40050     10.00000         0.021582     -0.012461     -0.807091
      1.38593      0.80017     12.26321         0.167888     -0.096930      0.190526
      4.15779      0.80017     12.26321        -0.186977      0.063280     -0.013249
      2.77186      3.20067     12.26321         0.146909     -0.084818      0.355392
      5.54372      3.20067     12.26321        -0.148291      0.130287     -0.013249
      5.54372      1.60033     14.56863         0.027221     -0.015716     -0.174687
      2.77186      1.60033     14.56863        -0.013888     -0.012501      0.055766
      4.15779      4.00083     14.56863         0.003882      0.018278      0.055766
      0.00000      0.00000     16.90767         0.102737      0.084018      0.152019
      2.77186      0.00000     16.90767        -0.103594      0.059810      0.147093
      1.38593      2.40050     16.90767        -0.021393     -0.130982      0.152019
      4.15779      2.40050     16.90767         0.023563     -0.013604     -0.063408
 -----------------------------------------------------------------------------------
    total drift:                                0.000143     -0.000085      0.010410


--------------------------------------------------------------------------------------------------------



  FREE ENERGIE OF THE ION-ELECTRON SYSTEM (eV)
  ---------------------------------------------------
  free  energy   TOTEN  =       -91.79872630 eV

  energy  without entropy=      -91.78874632  energy(sigma->0) =      -91.79539964
 


--------------------------------------------------------------------------------------------------------


    POTLOK:  cpu time    0.0208: real time    0.0208


--------------------------------------------------------------------------------------------------------


     LOOP+:  cpu time  186.9906: real time  187.0351
    4ORBIT:  cpu time    0.0000: real time    0.0000

 total amount of memory used by VASP MPI-rank0    94502. kBytes
=======================================================================

   base      :      30000. kBytes
   nonlr-proj:       2110. kBytes
   fftplans  :       2594. kBytes
   grid      :       4625. kBytes
   one-center:         62. kBytes
   wavefun   :      55111. kBytes
 
  
  
 General timing and accounting informations for this job:
 ========================================================
  
                  Total CPU time used (sec):      190.744
                            User time (sec):      190.150
                          System time (sec):        0.594
                         Elapsed time (sec):      190.981
  
                   Maximum memory used (kb):      129736.
                   Average memory used (kb):           0.
  
                          Minor page faults:        57201
                          Major page faults:            0
                 Voluntary context switches:          575
