       N       E                     dE             d eps       ncg     rms          rms(c)
DAV:   1     0.102891074481E+04    0.10289E+04   -0.58318E+04 19288   0.103E+03
DAV:   2    -0.288985394691E+02   -0.10578E+04   -0.98393E+03 23976   0.259E+02
DAV:   3    -0.120776607865E+03   -0.91878E+02   -0.84943E+02 23040   0.759E+01
DAV:   4    -0.125259651187E+03   -0.44830E+01   -0.42646E+01 25600   0.170E+01
DAV:   5    -0.125400122988E+03   -0.14047E+00   -0.13920E+00 26404   0.296E+00    0.431E+01
DAV:   6    -0.118152386129E+03    0.72477E+01   -0.37384E+01 23276   0.255E+01    0.327E+01
DAV:   7    -0.153669290708E+03   -0.35517E+02   -0.15296E+02 29120   0.682E+01    0.530E+01
DAV:   8    -0.131599279795E+03    0.22070E+02   -0.64485E+01 30180   0.486E+01    0.357E+01
DAV:   9    -0.125435472489E+03    0.61638E+01   -0.74616E+01 25464   0.425E+01    0.278E+01
DAV:  10    -0.129061756840E+03   -0.36263E+01   -0.49961E+01 30380   0.514E+01    0.300E+01
DAV:  11    -0.116359673289E+03    0.12702E+02   -0.23270E+01 27432   0.200E+01    0.115E+01
DAV:  12    -0.116797967479E+03   -0.43829E+00   -0.90808E+00 26856   0.152E+01    0.141E+01
DAV:  13    -0.115319576750E+03    0.14784E+01   -0.89822E+00 27244   0.943E+00    0.637E+00
DAV:  14    -0.115108599085E+03    0.21098E+00   -0.13491E+00 22940   0.523E+00    0.449E+00
DAV:  15    -0.115089808553E+03    0.18791E-01   -0.95389E-02 22424   0.128E+00    0.401E+00
DAV:  16    -0.115070967972E+03    0.18841E-01   -0.51455E-02 28760   0.896E-01    0.352E+00
DAV:  17    -0.115041762144E+03    0.29206E-01   -0.28710E-01 21664   0.192E+00    0.217E+00
DAV:  18    -0.115031128504E+03    0.10634E-01   -0.29131E-02 21216   0.839E-01    0.176E+00
DAV:  19    -0.115023911844E+03    0.72167E-02   -0.86976E-03 22224   0.423E-01    0.140E+00
DAV:  20    -0.115016597175E+03    0.73147E-02   -0.10866E-02 22080   0.451E-01    0.106E+00
DAV:  21    -0.115010518720E+03    0.60785E-02   -0.89774E-03 25160   0.382E-01    0.717E-01
DAV:  22    -0.115009483573E+03    0.10351E-02   -0.11420E-03 24048   0.144E-01    0.654E-01
DAV:  23    -0.115008881672E+03    0.60190E-03   -0.45180E-04 26920   0.978E-02    0.614E-01
DAV:  24    -0.115006508409E+03    0.23733E-02   -0.25484E-03 27376   0.195E-01    0.363E-01
DAV:  25    -0.115005693676E+03    0.81473E-03   -0.12540E-03 27896   0.134E-01    0.199E-01
DAV:  26    -0.115005445652E+03    0.24802E-03   -0.44689E-04 27232   0.918E-02    0.102E-01
DAV:  27    -0.115005449082E+03   -0.34297E-05   -0.14420E-04 21784   0.568E-02    0.639E-02
DAV:  28    -0.115005503018E+03   -0.53936E-04   -0.14213E-04 16948   0.504E-02    0.328E-02
DAV:  29    -0.115005649489E+03   -0.14647E-03   -0.59098E-05 13968   0.306E-02    0.179E-02
DAV:  30    -0.115005815852E+03   -0.16636E-03   -0.37355E-05 13532   0.239E-02    0.322E-02
DAV:  31    -0.115005897896E+03   -0.82044E-04   -0.15141E-05 12360   0.132E-02    0.409E-02
DAV:  32    -0.115005973148E+03   -0.75252E-04   -0.67160E-06 12248   0.103E-02    0.287E-02
DAV:  33    -0.115006063261E+03   -0.90113E-04   -0.50331E-06 12360   0.880E-03    0.209E-02
DAV:  34    -0.115006132604E+03   -0.69343E-04   -0.75236E-06 12336   0.108E-02    0.104E-02
DAV:  35    -0.115006174456E+03   -0.41852E-04   -0.62113E-06 12368   0.802E-03    0.306E-03
DAV:  36    -0.115006185531E+03   -0.11076E-04   -0.10292E-06 11208   0.378E-03    0.395E-03
DAV:  37    -0.115006192864E+03   -0.73326E-05   -0.51855E-07 11844   0.222E-03
   1 F= -.11499880E+03 E0= -.11498779E+03  d E =-.330210E-01
