       N       E                     dE             d eps       ncg     rms          rms(c)
DAV:   1     0.101371808205E+04    0.10137E+04   -0.58199E+04 19320   0.103E+03
DAV:   2    -0.291023998979E+02   -0.10428E+04   -0.96876E+03 23792   0.258E+02
DAV:   3    -0.120916459867E+03   -0.91814E+02   -0.84845E+02 23048   0.755E+01
DAV:   4    -0.125415233789E+03   -0.44988E+01   -0.42697E+01 25760   0.168E+01
DAV:   5    -0.125562418026E+03   -0.14718E+00   -0.14585E+00 26852   0.300E+00    0.425E+01
DAV:   6    -0.120076036199E+03    0.54864E+01   -0.32053E+01 22608   0.228E+01    0.347E+01
DAV:   7    -0.171868688601E+03   -0.51793E+02   -0.22966E+02 28952   0.791E+01    0.575E+01
DAV:   8    -0.145697948601E+03    0.26171E+02   -0.10382E+02 27580   0.452E+01    0.455E+01
DAV:   9    -0.134140215781E+03    0.11558E+02   -0.58146E+01 33204   0.454E+01    0.315E+01
DAV:  10    -0.119219964865E+03    0.14920E+02   -0.41735E+01 26848   0.346E+01    0.182E+01
DAV:  11    -0.117250942840E+03    0.19690E+01   -0.24629E+01 27940   0.189E+01    0.143E+01
DAV:  12    -0.116013171185E+03    0.12378E+01   -0.78370E+00 25888   0.102E+01    0.574E+00
DAV:  13    -0.115870127753E+03    0.14304E+00   -0.47911E-01 27080   0.320E+00    0.446E+00
DAV:  14    -0.115825645991E+03    0.44482E-01   -0.10339E-01 22920   0.161E+00    0.404E+00
DAV:  15    -0.115827731117E+03   -0.20851E-02   -0.17513E-01 24236   0.173E+00    0.287E+00
DAV:  16    -0.115797537615E+03    0.30194E-01   -0.18038E-01 21608   0.188E+00    0.134E+00
DAV:  17    -0.115778413467E+03    0.19124E-01   -0.53564E-02 23624   0.104E+00    0.869E-01
DAV:  18    -0.115774293745E+03    0.41197E-02   -0.25268E-02 26112   0.615E-01    0.564E-01
DAV:  19    -0.115771772679E+03    0.25211E-02   -0.47297E-03 21200   0.289E-01    0.419E-01
DAV:  20    -0.115770269831E+03    0.15028E-02   -0.33588E-03 26816   0.268E-01    0.313E-01
DAV:  21    -0.115769840231E+03    0.42960E-03   -0.23542E-03 22012   0.222E-01    0.217E-01
DAV:  22    -0.115769723631E+03    0.11660E-03   -0.12342E-03 21404   0.148E-01    0.196E-01
DAV:  23    -0.115769338133E+03    0.38550E-03   -0.57171E-04 24000   0.116E-01    0.108E-01
DAV:  24    -0.115769221133E+03    0.11700E-03   -0.42234E-04 24684   0.831E-02    0.375E-02
DAV:  25    -0.115769245039E+03   -0.23906E-04   -0.70605E-05 18604   0.384E-02    0.265E-02
DAV:  26    -0.115769307277E+03   -0.62238E-04   -0.61237E-05 16600   0.348E-02    0.297E-02
DAV:  27    -0.115769398367E+03   -0.91090E-04   -0.68534E-05 17296   0.399E-02    0.354E-02
DAV:  28    -0.115769540766E+03   -0.14240E-03   -0.67694E-05 14852   0.351E-02    0.189E-02
DAV:  29    -0.115769629848E+03   -0.89082E-04   -0.23303E-05 13484   0.180E-02    0.245E-02
DAV:  30    -0.115769715754E+03   -0.85905E-04   -0.14036E-05 11496   0.141E-02    0.121E-02
DAV:  31    -0.115769789966E+03   -0.74213E-04   -0.50276E-06 12216   0.765E-03    0.115E-02
DAV:  32    -0.115769834882E+03   -0.44916E-04   -0.62281E-06 11132   0.984E-03    0.413E-03
DAV:  33    -0.115769855376E+03   -0.20494E-04   -0.17325E-06 10724   0.486E-03    0.498E-03
DAV:  34    -0.115769862230E+03   -0.68536E-05   -0.81785E-07 10056   0.329E-03
   1 F= -.11576970E+03 E0= -.11576517E+03  d E =-.136083E-01
