 vasp.5.4.4.18Apr17-6-g9f103f2a35 (build Apr 28 2017 10:53:45) complex          
  
 executed on             LinuxIFC date 2019.07.18  15:53:59
 running on   16 total cores
 distrk:  each k-point on   16 cores,    1 groups
 distr:  one band on NCORES_PER_BAND=   4 cores,    4 groups


--------------------------------------------------------------------------------------------------------


 INCAR:
 POTCAR:    PAW_PBE Au 04Oct2007                  
 POTCAR:    PAW_PBE C 08Apr2002                   
 POTCAR:    PAW_PBE H 15Jun2001                   
 POTCAR:    PAW_PBE Ir 06Sep2000                  
 POTCAR:    PAW_PBE Pt 04Feb2005                  
 POTCAR:    PAW_PBE Au 04Oct2007                  
   VRHFIN =Au: s1d10                                                            
   LEXCH  = PE                                                                  
   EATOM  =   926.0867 eV,   68.0654 Ry                                         
                                                                                
   TITEL  = PAW_PBE Au 04Oct2007                                                
   LULTRA =        F    use ultrasoft PP ?                                      
   IUNSCR =        1    unscreen: 0-lin 1-nonlin 2-no                           
   RPACOR =    2.330    partial core radius                                     
   POMASS =  196.966; ZVAL   =   11.000    mass and valenz                      
   RCORE  =    2.500    outmost cutoff radius                                   
   RWIGS  =    2.840; RWIGS  =    1.503    wigner-seitz radius (au A)           
   ENMAX  =  229.943; ENMIN  =  172.457 eV                                      
   ICORE  =        3    local potential                                         
   LCOR   =        T    correct aug charges                                     
   LPAW   =        T    paw PP                                                  
   EAUG   =  356.670                                                            
   DEXC   =    0.000                                                            
   RMAX   =    2.562    core radius for proj-oper                               
   RAUG   =    1.300    factor for augmentation sphere                          
   RDEP   =    2.598    radius for radial grids                                 
   RDEPT  =    2.193    core radius for aug-charge                              
                                                                                
   Atomic configuration                                                         
   16 entries                                                                   
     n  l   j            E        occ.                                          
     1  0  0.50    -80748.5001   2.0000                                         
     2  0  0.50    -14244.7466   2.0000                                         
     2  1  1.50    -12310.9591   6.0000                                         
     3  0  0.50     -3362.1768   2.0000                                         
     3  1  1.50     -2801.5463   6.0000                                         
     3  2  2.50     -2203.8206  10.0000                                         
     4  0  0.50      -729.8168   2.0000                                         
     4  1  1.50      -546.0527   6.0000                                         
     4  2  2.50      -325.7302  10.0000                                         
     4  3  3.50       -81.1472  14.0000                                         
     5  0  0.50      -108.3201   2.0000                                         
     5  1  1.50       -59.7479   6.0000                                         
     5  2  2.50        -6.8783  10.0000                                         
     6  0  0.50        -5.7602   1.0000                                         
     6  1  1.50        -6.8029   0.0000                                         
     5  3  2.50        -1.3606   0.0000                                         
   Description                                                                  
     l       E           TYP  RCUT    TYP  RCUT                                 
     2     -6.8782861     23  2.500                                             
     2     -8.2388687     23  2.500                                             
     0     -5.7601759     23  2.500                                             
     0     -0.8493231     23  2.500                                             
     1     -2.7211652     23  2.500                                             
     1     27.2116520     23  2.500                                             
     3     -1.3605826     23  2.500                                             
  local pseudopotential read in
  partial core-charges read in
  partial kinetic energy density read in
  atomic valenz-charges read in
  non local Contribution for L=           2  read in
    real space projection operators read in
  non local Contribution for L=           2  read in
    real space projection operators read in
  non local Contribution for L=           0  read in
    real space projection operators read in
  non local Contribution for L=           0  read in
    real space projection operators read in
  non local Contribution for L=           1  read in
    real space projection operators read in
  non local Contribution for L=           1  read in
    real space projection operators read in
    PAW grid and wavefunctions read in
 
   number of l-projection  operators is LMAX  =           6
   number of lm-projection operators is LMMAX =          18
 
 POTCAR:    PAW_PBE C 08Apr2002                   
   VRHFIN =C: s2p2                                                              
   LEXCH  = PE                                                                  
   EATOM  =   147.1560 eV,   10.8157 Ry                                         
                                                                                
   TITEL  = PAW_PBE C 08Apr2002                                                 
   LULTRA =        F    use ultrasoft PP ?                                      
   IUNSCR =        1    unscreen: 0-lin 1-nonlin 2-no                           
   RPACOR =    1.200    partial core radius                                     
   POMASS =   12.011; ZVAL   =    4.000    mass and valenz                      
   RCORE  =    1.500    outmost cutoff radius                                   
   RWIGS  =    1.630; RWIGS  =    0.863    wigner-seitz radius (au A)           
   ENMAX  =  400.000; ENMIN  =  300.000 eV                                      
   ICORE  =        2    local potential                                         
   LCOR   =        T    correct aug charges                                     
   LPAW   =        T    paw PP                                                  
   EAUG   =  644.873                                                            
   DEXC   =    0.000                                                            
   RMAX   =    1.529    core radius for proj-oper                               
   RAUG   =    1.300    factor for augmentation sphere                          
   RDEP   =    1.501    radius for radial grids                                 
   RDEPT  =    1.300    core radius for aug-charge                              
                                                                                
   Atomic configuration                                                         
    4 entries                                                                   
     n  l   j            E        occ.                                          
     1  0  0.50      -273.3789   2.0000                                         
     2  0  0.50       -13.7508   2.0000                                         
     2  1  0.50        -5.2854   2.0000                                         
     3  2  1.50        -5.4423   0.0000                                         
   Description                                                                  
     l       E           TYP  RCUT    TYP  RCUT                                 
     0    -13.7508458     23  1.200                                             
     0     -8.2022199     23  1.200                                             
     1     -5.2854383     23  1.500                                             
     1     34.0145650     23  1.500                                             
     2     -5.4423304      7  1.500                                             
  local pseudopotential read in
  partial core-charges read in
  partial kinetic energy density read in
  atomic valenz-charges read in
  non local Contribution for L=           0  read in
    real space projection operators read in
  non local Contribution for L=           0  read in
    real space projection operators read in
  non local Contribution for L=           1  read in
    real space projection operators read in
  non local Contribution for L=           1  read in
    real space projection operators read in
    PAW grid and wavefunctions read in
 
   number of l-projection  operators is LMAX  =           4
   number of lm-projection operators is LMMAX =           8
 
 POTCAR:    PAW_PBE H 15Jun2001                   
   VRHFIN =H: ultrasoft test                                                    
   LEXCH  = PE                                                                  
   EATOM  =    12.4884 eV,    0.9179 Ry                                         
                                                                                
   TITEL  = PAW_PBE H 15Jun2001                                                 
   LULTRA =        F    use ultrasoft PP ?                                      
   IUNSCR =        0    unscreen: 0-lin 1-nonlin 2-no                           
   RPACOR =    0.000    partial core radius                                     
   POMASS =    1.000; ZVAL   =    1.000    mass and valenz                      
   RCORE  =    1.100    outmost cutoff radius                                   
   RWIGS  =    0.700; RWIGS  =    0.370    wigner-seitz radius (au A)           
   ENMAX  =  250.000; ENMIN  =  200.000 eV                                      
   RCLOC  =    0.701    cutoff for local pot                                    
   LCOR   =        T    correct aug charges                                     
   LPAW   =        T    paw PP                                                  
   EAUG   =  400.000                                                            
   RMAX   =    1.123    core radius for proj-oper                               
   RAUG   =    1.200    factor for augmentation sphere                          
   RDEP   =    1.112    radius for radial grids                                 
   RDEPT  =    0.926    core radius for aug-charge                              
                                                                                
   Atomic configuration                                                         
    2 entries                                                                   
     n  l   j            E        occ.                                          
     1  0  0.50        -6.4927   1.0000                                         
     2  1  0.50        -3.4015   0.0000                                         
   Description                                                                  
     l       E           TYP  RCUT    TYP  RCUT                                 
     0     -6.4927494     23  1.100                                             
     0      6.8029130     23  1.100                                             
     1     -4.0817478     23  1.100                                             
  local pseudopotential read in
  atomic valenz-charges read in
  non local Contribution for L=           0  read in
    real space projection operators read in
  non local Contribution for L=           0  read in
    real space projection operators read in
  non local Contribution for L=           1  read in
    real space projection operators read in
    PAW grid and wavefunctions read in
 
   number of l-projection  operators is LMAX  =           3
   number of lm-projection operators is LMMAX =           5
 
 POTCAR:    PAW_PBE Ir 06Sep2000                  
   VRHFIN =Ir: s1d8                                                             
   LEXCH  = PE                                                                  
   EATOM  =   560.1833 eV,   41.1723 Ry                                         
                                                                                
   TITEL  = PAW_PBE Ir 06Sep2000                                                
   LULTRA =        F    use ultrasoft PP ?                                      
   IUNSCR =        1    unscreen: 0-lin 1-nonlin 2-no                           
   RPACOR =    2.250    partial core radius                                     
   POMASS =  192.220; ZVAL   =    9.000    mass and valenz                      
   RCORE  =    2.600    outmost cutoff radius                                   
   RWIGS  =    2.690; RWIGS  =    1.423    wigner-seitz radius (au A)           
   ENMAX  =  210.864; ENMIN  =  158.148 eV                                      
   RCLOC  =    1.857    cutoff for local pot                                    
   LCOR   =        T    correct aug charges                                     
   LPAW   =        T    paw PP                                                  
   EAUG   =  318.962                                                            
   DEXC   =    0.000                                                            
   RMAX   =    2.667    core radius for proj-oper                               
   RAUG   =    1.300    factor for augmentation sphere                          
   RDEP   =    2.748    radius for radial grids                                 
   RDEPT  =    2.300    core radius for aug-charge                              
                                                                                
   Atomic configuration                                                         
   16 entries                                                                   
     n  l   j            E        occ.                                          
     1  0  0.50    -76100.0449   2.0000                                         
     2  0  0.50    -13308.1683   2.0000                                         
     2  1  1.50    -11558.0021   6.0000                                         
     3  0  0.50     -3110.7274   2.0000                                         
     3  1  1.50     -2599.2109   6.0000                                         
     3  2  2.50     -2037.1515  10.0000                                         
     4  0  0.50      -661.6001   2.0000                                         
     4  1  1.50      -493.8981   6.0000                                         
     4  2  2.50      -288.1909  10.0000                                         
     4  3  3.50       -59.5718  14.0000                                         
     5  0  0.50       -95.3879   2.0000                                         
     5  1  1.50       -52.2747   6.0000                                         
     5  2  2.50        -5.4180   8.0000                                         
     6  0  0.50        -5.5479   1.0000                                         
     6  1  1.50        -6.8029   0.0000                                         
     5  3  2.50        -1.3606   0.0000                                         
   Description                                                                  
     l       E           TYP  RCUT    TYP  RCUT                                 
     2     -5.4179967     23  2.600                                             
     2     -6.7785793     23  2.600                                             
     0     -5.5478636     23  2.600                                             
     0      2.2542272     23  2.600                                             
     1     -2.7211652     23  2.600                                             
     1     20.4087390     23  2.600                                             
  local pseudopotential read in
  partial core-charges read in
  partial kinetic energy density read in
  atomic valenz-charges read in
  non local Contribution for L=           2  read in
    real space projection operators read in
  non local Contribution for L=           2  read in
    real space projection operators read in
  non local Contribution for L=           0  read in
    real space projection operators read in
  non local Contribution for L=           0  read in
    real space projection operators read in
  non local Contribution for L=           1  read in
    real space projection operators read in
  non local Contribution for L=           1  read in
    real space projection operators read in
    PAW grid and wavefunctions read in
 
   number of l-projection  operators is LMAX  =           6
   number of lm-projection operators is LMMAX =          18
 
 POTCAR:    PAW_PBE Pt 04Feb2005                  
   VRHFIN =Pt: s1d9                                                             
   LEXCH  = PE                                                                  
   EATOM  =   729.1176 eV,   53.5886 Ry                                         
                                                                                
   TITEL  = PAW_PBE Pt 04Feb2005                                                
   LULTRA =        F    use ultrasoft PP ?                                      
   IUNSCR =        1    unscreen: 0-lin 1-nonlin 2-no                           
   RPACOR =    2.330    partial core radius                                     
   POMASS =  195.080; ZVAL   =   10.000    mass and valenz                      
   RCORE  =    2.600    outmost cutoff radius                                   
   RWIGS  =    2.750; RWIGS  =    1.455    wigner-seitz radius (au A)           
   ENMAX  =  230.283; ENMIN  =  172.712 eV                                      
   ICORE  =        3    local potential                                         
   LCOR   =        T    correct aug charges                                     
   LPAW   =        T    paw PP                                                  
   EAUG   =  358.966                                                            
   DEXC   =    0.000                                                            
   RMAX   =    2.658    core radius for proj-oper                               
   RAUG   =    1.300    factor for augmentation sphere                          
   RDEP   =    2.761    radius for radial grids                                 
   RDEPT  =    2.203    core radius for aug-charge                              
                                                                                
   Atomic configuration                                                         
   16 entries                                                                   
     n  l   j            E        occ.                                          
     1  0  0.50    -78401.1885   2.0000                                         
     2  0  0.50    -13770.7750   2.0000                                         
     2  1  1.50    -11931.0468   6.0000                                         
     3  0  0.50     -3234.7234   2.0000                                         
     3  1  1.50     -2699.2216   6.0000                                         
     3  2  2.50     -2119.5714  10.0000                                         
     4  0  0.50      -695.1528   2.0000                                         
     4  1  1.50      -519.6034   6.0000                                         
     4  2  2.50      -306.6786  10.0000                                         
     4  3  3.50       -70.1041  14.0000                                         
     5  0  0.50      -101.7747   2.0000                                         
     5  1  1.50       -55.9873   6.0000                                         
     5  2  2.50        -6.1423   9.0000                                         
     6  0  0.50        -5.6573   1.0000                                         
     6  1  1.50        -6.8029   0.0000                                         
     5  3  2.50        -1.3606   0.0000                                         
   Description                                                                  
     l       E           TYP  RCUT    TYP  RCUT                                 
     2     -6.1423404     23  2.500                                             
     2     -7.5029230     23  2.500                                             
     0     -5.6573207     23  2.500                                             
     0      0.7416693     23  2.500                                             
     1     -2.7211652     23  2.600                                             
     1     20.4087390     23  2.600                                             
     3     -1.3605826     23  2.500                                             
  local pseudopotential read in
  partial core-charges read in
  partial kinetic energy density read in
  atomic valenz-charges read in
  non local Contribution for L=           2  read in
    real space projection operators read in
  non local Contribution for L=           2  read in
    real space projection operators read in
  non local Contribution for L=           0  read in
    real space projection operators read in
  non local Contribution for L=           0  read in
    real space projection operators read in
  non local Contribution for L=           1  read in
    real space projection operators read in
  non local Contribution for L=           1  read in
    real space projection operators read in
    PAW grid and wavefunctions read in
 
   number of l-projection  operators is LMAX  =           6
   number of lm-projection operators is LMMAX =          18
 
 Optimization of the real space projectors (new method)

 maximal supplied QI-value         = 15.12
 optimisation between [QCUT,QGAM] = [  9.52, 19.05] = [ 25.40,101.61] Ry 
 Optimized for a Real-space Cutoff    1.57 Angstroem

   l    n(q)    QCUT    max X(q) W(low)/X(q) W(high)/X(q)  e(spline) 
   2      8     9.524    60.898    0.38E-03    0.43E-04    0.84E-07
   2      8     9.524    58.894    0.38E-03    0.47E-04    0.88E-07
   0      9     9.524   109.617    0.60E-04    0.64E-04    0.80E-07
   0      9     9.524    75.026    0.59E-04    0.62E-04    0.78E-07
   1      8     9.524    16.344    0.99E-04    0.18E-03    0.87E-07
   1      8     9.524    10.160    0.78E-04    0.15E-03    0.74E-07
 Optimization of the real space projectors (new method)

 maximal supplied QI-value         = 25.13
 optimisation between [QCUT,QGAM] = [  9.55, 19.10] = [ 25.54,102.17] Ry 
 Optimized for a Real-space Cutoff    1.39 Angstroem

   l    n(q)    QCUT    max X(q) W(low)/X(q) W(high)/X(q)  e(spline) 
   0      8     9.551   115.676    0.39E-03    0.54E-03    0.29E-06
   0      8     9.551    87.132    0.39E-03    0.54E-03    0.28E-06
   1      7     9.551     4.429    0.35E-03    0.51E-04    0.29E-06
   1      7     9.551     2.733    0.22E-03    0.42E-04    0.31E-06
 Optimization of the real space projectors (new method)

 maximal supplied QI-value         = 34.20
 optimisation between [QCUT,QGAM] = [  9.58, 19.15] = [ 25.68,102.74] Ry 
 Optimized for a Real-space Cutoff    1.31 Angstroem

   l    n(q)    QCUT    max X(q) W(low)/X(q) W(high)/X(q)  e(spline) 
   0      7     9.577    19.460    0.33E-03    0.12E-03    0.35E-06
   0      7     9.577    12.209    0.33E-03    0.11E-03    0.33E-06
   1      7     9.577     4.655    0.39E-03    0.14E-02    0.33E-06
 Optimization of the real space projectors (new method)

 maximal supplied QI-value         = 14.36
 optimisation between [QCUT,QGAM] = [  9.48, 19.10] = [ 25.16,102.17] Ry 
 Optimized for a Real-space Cutoff    1.57 Angstroem

   l    n(q)    QCUT    max X(q) W(low)/X(q) W(high)/X(q)  e(spline) 
   2      8     9.479   134.116    0.18E-03    0.75E-03    0.26E-06
   2      8     9.479   130.192    0.18E-03    0.75E-03    0.27E-06
   0      9     9.479    60.310    0.39E-03    0.24E-03    0.63E-07
   0      9     9.479    39.218    0.36E-03    0.22E-03    0.59E-07
   1      8     9.479    18.439    0.20E-03    0.15E-03    0.16E-06
   1      8     9.479    12.760    0.16E-03    0.11E-03    0.13E-06
 Optimization of the real space projectors (new method)

 maximal supplied QI-value         = 14.36
 optimisation between [QCUT,QGAM] = [  9.48, 19.10] = [ 25.16,102.17] Ry 
 Optimized for a Real-space Cutoff    1.57 Angstroem

   l    n(q)    QCUT    max X(q) W(low)/X(q) W(high)/X(q)  e(spline) 
   2      8     9.479    66.195    0.35E-03    0.53E-04    0.87E-07
   2      8     9.479    64.643    0.35E-03    0.57E-04    0.91E-07
   0      9     9.479    95.520    0.50E-04    0.62E-04    0.81E-07
   0      9     9.479    63.403    0.49E-04    0.60E-04    0.78E-07
   1      8     9.479    19.961    0.10E-03    0.87E-04    0.11E-06
   1      8     9.479    13.289    0.88E-04    0.71E-04    0.97E-07
  PAW_PBE Au 04Oct2007                  :
 energy of atom  1       EATOM= -926.0867
 kinetic energy error for atom=    0.0152 (will be added to EATOM!!)
  PAW_PBE C 08Apr2002                   :
 energy of atom  2       EATOM= -147.1560
 kinetic energy error for atom=    0.0854 (will be added to EATOM!!)
  PAW_PBE H 15Jun2001                   :
 energy of atom  3       EATOM=  -12.4884
 kinetic energy error for atom=    0.0203 (will be added to EATOM!!)
  PAW_PBE Ir 06Sep2000                  :
 energy of atom  4       EATOM= -560.1833
 kinetic energy error for atom=    0.0056 (will be added to EATOM!!)
  PAW_PBE Pt 04Feb2005                  :
 energy of atom  5       EATOM= -729.1176
 kinetic energy error for atom=    0.0144 (will be added to EATOM!!)
 
 
 POSCAR: Au  C  H Ir Pt                          
  positions in cartesian coordinates
  No initial velocities read in
 exchange correlation table for  LEXCH =        8
   RHO(1)=    0.500       N(1)  =     2000
   RHO(2)=  100.500       N(2)  =     4000
 


--------------------------------------------------------------------------------------------------------


 ion  position               nearest neighbor table
   1  0.333  0.838  0.539-  21 2.78  13 2.78  20 2.78  20 2.78  13 2.78  21 2.78  17 2.79  14 2.80
                            15 2.81   8 2.82  11 2.82  10 2.83
   2  0.990  0.025  0.736-   4 1.10   5 1.10   6 1.10   3 1.10
   3  0.997  0.168  0.712-   2 1.10
   4  0.795  0.135  0.754-   2 1.10
   5  0.000  0.846  0.719-   2 1.10
   6  0.168  0.953  0.758-   2 1.10
   7  0.500  0.000  0.390-  18 2.78  18 2.78  19 2.78  19 2.78  12 2.78  12 2.78  14 2.82  17 2.82
                            16 2.83
   8  0.500  0.506  0.615-  10 2.78   9 2.78  11 2.78  11 2.78   9 2.78  10 2.78   1 2.82  13 2.83
                            20 2.83
   9  0.000  0.506  0.615-  10 2.78  11 2.78   8 2.78   8 2.78  11 2.78  10 2.78  21 2.82  20 2.83
                            13 2.83
  10  0.500  0.007  0.615-   9 2.78   8 2.78  11 2.78  11 2.78   8 2.78   9 2.78  20 2.82  21 2.83
                             1 2.83
  11  0.000  0.007  0.615-   9 2.78   8 2.78  10 2.78  10 2.78   8 2.78   9 2.78  13 2.82   1 2.82
                            21 2.83
  12  0.000  0.000  0.390-  19 2.78  18 2.78  19 2.78  18 2.78   7 2.78   7 2.78  15 2.82  16 2.82
                            17 2.83
  13  0.833  0.338  0.539-  21 2.78   1 2.78  20 2.78  20 2.78   1 2.78  21 2.78  14 2.79  17 2.80
                            16 2.81  11 2.82   8 2.83   9 2.83
  14  0.667  0.669  0.465-  17 2.78  16 2.78  15 2.78  15 2.78  16 2.78  17 2.78  13 2.79   1 2.80
                            21 2.81   7 2.82  19 2.82  18 2.83
  15  0.167  0.669  0.465-  16 2.78  17 2.78  14 2.78  14 2.78  17 2.78  16 2.78  20 2.79  21 2.80
                             1 2.81  12 2.82  18 2.82  19 2.83
  16  0.667  0.169  0.465-  15 2.78  17 2.78  14 2.78  14 2.78  17 2.78  15 2.78  21 2.79  20 2.80
                            13 2.81  18 2.82  12 2.82   7 2.83
  17  0.167  0.169  0.465-  15 2.78  16 2.78  14 2.78  14 2.78  16 2.78  15 2.78   1 2.79  13 2.80
                            20 2.81  19 2.82   7 2.82  12 2.83
  18  0.500  0.500  0.390-   7 2.78   7 2.78  12 2.78  12 2.78  19 2.78  19 2.78  16 2.82  15 2.82
                            14 2.83
  19  0.000  0.500  0.390-  12 2.78   7 2.78  12 2.78   7 2.78  18 2.78  18 2.78  17 2.82  14 2.82
                            15 2.83
  20  0.333  0.338  0.539-  13 2.78  21 2.78   1 2.78   1 2.78  21 2.78  13 2.78  15 2.79  16 2.80
                            17 2.81  10 2.82   9 2.83   8 2.83
  21  0.834  0.838  0.539-   1 2.78  13 2.78  20 2.78  20 2.78  13 2.78   1 2.78  16 2.79  15 2.80
                            14 2.81   9 2.82  10 2.83  11 2.83
 
  LATTYP: Found a hexagonal cell.
 ALAT       =     5.5578593001
 C/A-ratio  =     5.5429542221
  
  Lattice vectors:
  
 A1 = (   2.7789296501,  -4.8132473446,   0.0000000000)
 A2 = (  -5.5578593001,   0.0000000000,   0.0000000000)
 A3 = (   0.0000000000,   0.0000000000, -30.8069596737)


Analysis of symmetry for initial positions (statically):
=====================================================================
 Subroutine PRICEL returns:
 Original cell was already a primitive cell.
 

 Routine SETGRP: Setting up the symmetry group for a 
 hexagonal supercell.


 Subroutine GETGRP returns: Found  1 space group operations
 (whereof  1 operations were pure point group operations)
 out of a pool of 24 trial point group operations.


The static configuration has the point symmetry C_1 .


Analysis of symmetry for dynamics (positions and initial velocities):
=====================================================================
 Subroutine PRICEL returns:
 Original cell was already a primitive cell.
 

 Routine SETGRP: Setting up the symmetry group for a 
 hexagonal supercell.


 Subroutine GETGRP returns: Found  1 space group operations
 (whereof  1 operations were pure point group operations)
 out of a pool of 24 trial point group operations.


The dynamic configuration has the point symmetry C_1 .


Analysis of constrained symmetry for selective dynamics:
=====================================================================
 Subroutine PRICEL returns:
 Original cell was already a primitive cell.
 

 Routine SETGRP: Setting up the symmetry group for a 
 hexagonal supercell.


 Subroutine GETGRP returns: Found  1 space group operations
 (whereof  1 operations were pure point group operations)
 out of a pool of 24 trial point group operations.


The constrained configuration has the point symmetry C_1 .


 Subroutine INISYM returns: Found  1 space group operations
 (whereof  1 operations are pure point group operations),
 and found     1 'primitive' translations

 
 
 KPOINTS: 0.4.Ir1.Au11                            

Automatic generation of k-mesh.
Space group operators:
 irot       det(A)        alpha          n_x          n_y          n_z        tau_x        tau_y        tau_z
    1     1.000000     0.000001     1.000000     0.000000     0.000000     0.000000     0.000000     0.000000
 
 Subroutine IBZKPT returns following result:
 ===========================================
 
 Found     96 irreducible k-points:
 
 Following reciprocal coordinates:
            Coordinates               Weight
  0.062500  0.062500  0.000000     16.000000
  0.000000  0.062500  0.000000     16.000000
 -0.062500  0.000000  0.000000     16.000000
  0.187500  0.062500  0.000000     16.000000
  0.125000  0.187500  0.000000     16.000000
 -0.062500  0.125000  0.000000     16.000000
  0.125000 -0.062500  0.000000     16.000000
 -0.062500 -0.187500  0.000000     16.000000
 -0.187500 -0.125000  0.000000     16.000000
  0.312500  0.062500  0.000000     16.000000
  0.250000  0.312500  0.000000     16.000000
 -0.062500  0.250000  0.000000     16.000000
  0.250000 -0.062500  0.000000     16.000000
 -0.062500 -0.312500  0.000000     16.000000
 -0.312500 -0.250000  0.000000     16.000000
  0.437500  0.062500  0.000000     16.000000
  0.375000  0.437500  0.000000     16.000000
 -0.062500  0.375000  0.000000     16.000000
  0.375000 -0.062500  0.000000     16.000000
 -0.062500 -0.437500  0.000000     16.000000
 -0.437500 -0.375000  0.000000     16.000000
 -0.437500  0.062500  0.000000     16.000000
  0.500000 -0.437500  0.000000     16.000000
 -0.062500  0.500000  0.000000     16.000000
  0.500000 -0.062500  0.000000     16.000000
 -0.062500  0.437500  0.000000     16.000000
  0.437500  0.500000  0.000000     16.000000
 -0.312500  0.062500  0.000000     16.000000
 -0.375000 -0.312500  0.000000     16.000000
 -0.062500 -0.375000  0.000000     16.000000
 -0.375000 -0.062500  0.000000     16.000000
 -0.062500  0.312500  0.000000     16.000000
  0.312500  0.375000  0.000000     16.000000
 -0.187500  0.062500  0.000000     16.000000
 -0.250000 -0.187500  0.000000     16.000000
 -0.062500 -0.250000  0.000000     16.000000
 -0.250000 -0.062500  0.000000     16.000000
 -0.062500  0.187500  0.000000     16.000000
  0.187500  0.250000  0.000000     16.000000
 -0.062500  0.062500  0.000000     16.000000
 -0.125000 -0.062500  0.000000     16.000000
 -0.062500 -0.125000  0.000000     16.000000
  0.187500  0.187500  0.000000     16.000000
  0.000000  0.187500  0.000000     16.000000
 -0.187500  0.000000  0.000000     16.000000
  0.312500  0.187500  0.000000     16.000000
  0.125000  0.312500  0.000000     16.000000
 -0.187500  0.125000  0.000000     16.000000
  0.125000 -0.187500  0.000000     16.000000
 -0.187500 -0.312500  0.000000     16.000000
 -0.312500 -0.125000  0.000000     16.000000
  0.437500  0.187500  0.000000     16.000000
  0.250000  0.437500  0.000000     16.000000
 -0.187500  0.250000  0.000000     16.000000
  0.250000 -0.187500  0.000000     16.000000
 -0.187500 -0.437500  0.000000     16.000000
 -0.437500 -0.250000  0.000000     16.000000
 -0.437500  0.187500  0.000000     16.000000
  0.375000 -0.437500  0.000000     16.000000
 -0.187500  0.375000  0.000000     16.000000
  0.375000 -0.187500  0.000000     16.000000
 -0.187500  0.437500  0.000000     16.000000
  0.437500 -0.375000  0.000000     16.000000
 -0.312500  0.187500  0.000000     16.000000
  0.500000 -0.312500  0.000000     16.000000
 -0.187500  0.500000  0.000000     16.000000
  0.500000 -0.187500  0.000000     16.000000
 -0.187500  0.312500  0.000000     16.000000
  0.312500  0.500000  0.000000     16.000000
 -0.187500  0.187500  0.000000     16.000000
 -0.375000 -0.187500  0.000000     16.000000
 -0.187500 -0.375000  0.000000     16.000000
  0.312500  0.312500  0.000000     16.000000
  0.000000  0.312500  0.000000     16.000000
 -0.312500  0.000000  0.000000     16.000000
  0.437500  0.312500  0.000000     16.000000
  0.125000  0.437500  0.000000     16.000000
 -0.312500  0.125000  0.000000     16.000000
  0.125000 -0.312500  0.000000     16.000000
 -0.312500 -0.437500  0.000000     16.000000
 -0.437500 -0.125000  0.000000     16.000000
 -0.437500  0.312500  0.000000     16.000000
  0.250000 -0.437500  0.000000     16.000000
 -0.312500  0.250000  0.000000     16.000000
  0.250000 -0.312500  0.000000     16.000000
 -0.312500  0.437500  0.000000     16.000000
  0.437500 -0.250000  0.000000     16.000000
 -0.312500  0.312500  0.000000     16.000000
  0.375000 -0.312500  0.000000     16.000000
 -0.312500  0.375000  0.000000     16.000000
  0.437500  0.437500  0.000000     16.000000
  0.000000  0.437500  0.000000     16.000000
 -0.437500  0.000000  0.000000     16.000000
 -0.437500  0.437500  0.000000     16.000000
  0.125000 -0.437500  0.000000     16.000000
 -0.437500  0.125000  0.000000     16.000000
 
 Following cartesian coordinates:
            Coordinates               Weight
  0.011245  0.006492  0.000000     16.000000
  0.000000  0.012985  0.000000     16.000000
 -0.011245  0.006492  0.000000     16.000000
  0.033736 -0.006492  0.000000     16.000000
  0.022491  0.025970  0.000000     16.000000
 -0.011245  0.032462  0.000000     16.000000
  0.022491 -0.025970  0.000000     16.000000
 -0.011245 -0.032462  0.000000     16.000000
 -0.033736 -0.006492  0.000000     16.000000
  0.056227 -0.019477  0.000000     16.000000
  0.044981  0.038955  0.000000     16.000000
 -0.011245  0.058432  0.000000     16.000000
  0.044981 -0.038955  0.000000     16.000000
 -0.011245 -0.058432  0.000000     16.000000
 -0.056227 -0.019477  0.000000     16.000000
  0.078717 -0.032462  0.000000     16.000000
  0.067472  0.051940  0.000000     16.000000
 -0.011245  0.084402  0.000000     16.000000
  0.067472 -0.051940  0.000000     16.000000
 -0.011245 -0.084402  0.000000     16.000000
 -0.078717 -0.032462  0.000000     16.000000
 -0.078717  0.058432  0.000000     16.000000
  0.089963 -0.142835  0.000000     16.000000
 -0.011245  0.110372  0.000000     16.000000
  0.089963 -0.064925  0.000000     16.000000
 -0.011245  0.097387  0.000000     16.000000
  0.078717  0.058432  0.000000     16.000000
 -0.056227  0.045447  0.000000     16.000000
 -0.067472 -0.025970  0.000000     16.000000
 -0.011245 -0.071417  0.000000     16.000000
 -0.067472  0.025970  0.000000     16.000000
 -0.011245  0.071417  0.000000     16.000000
  0.056227  0.045447  0.000000     16.000000
 -0.033736  0.032462  0.000000     16.000000
 -0.044981 -0.012985  0.000000     16.000000
 -0.011245 -0.045447  0.000000     16.000000
 -0.044981  0.012985  0.000000     16.000000
 -0.011245  0.045447  0.000000     16.000000
  0.033736  0.032462  0.000000     16.000000
 -0.011245  0.019477  0.000000     16.000000
 -0.022491  0.000000  0.000000     16.000000
 -0.011245 -0.019477  0.000000     16.000000
  0.033736  0.019477  0.000000     16.000000
  0.000000  0.038955  0.000000     16.000000
 -0.033736  0.019477  0.000000     16.000000
  0.056227  0.006492  0.000000     16.000000
  0.022491  0.051940  0.000000     16.000000
 -0.033736  0.045447  0.000000     16.000000
  0.022491 -0.051940  0.000000     16.000000
 -0.033736 -0.045447  0.000000     16.000000
 -0.056227  0.006492  0.000000     16.000000
  0.078717 -0.006492  0.000000     16.000000
  0.044981  0.064925  0.000000     16.000000
 -0.033736  0.071417  0.000000     16.000000
  0.044981 -0.064925  0.000000     16.000000
 -0.033736 -0.071417  0.000000     16.000000
 -0.078717 -0.006492  0.000000     16.000000
 -0.078717  0.084402  0.000000     16.000000
  0.067472 -0.129850  0.000000     16.000000
 -0.033736  0.097387  0.000000     16.000000
  0.067472 -0.077910  0.000000     16.000000
 -0.033736  0.110372  0.000000     16.000000
  0.078717 -0.123357  0.000000     16.000000
 -0.056227  0.071417  0.000000     16.000000
  0.089963 -0.116865  0.000000     16.000000
 -0.033736  0.123357  0.000000     16.000000
  0.089963 -0.090895  0.000000     16.000000
 -0.033736  0.084402  0.000000     16.000000
  0.056227  0.071417  0.000000     16.000000
 -0.033736  0.058432  0.000000     16.000000
 -0.067472  0.000000  0.000000     16.000000
 -0.033736 -0.058432  0.000000     16.000000
  0.056227  0.032462  0.000000     16.000000
  0.000000  0.064925  0.000000     16.000000
 -0.056227  0.032462  0.000000     16.000000
  0.078717  0.019477  0.000000     16.000000
  0.022491  0.077910  0.000000     16.000000
 -0.056227  0.058432  0.000000     16.000000
  0.022491 -0.077910  0.000000     16.000000
 -0.056227 -0.058432  0.000000     16.000000
 -0.078717  0.019477  0.000000     16.000000
 -0.078717  0.110372  0.000000     16.000000
  0.044981 -0.116865  0.000000     16.000000
 -0.056227  0.084402  0.000000     16.000000
  0.044981 -0.090895  0.000000     16.000000
 -0.056227  0.123357  0.000000     16.000000
  0.078717 -0.097387  0.000000     16.000000
 -0.056227  0.097387  0.000000     16.000000
  0.067472 -0.103880  0.000000     16.000000
 -0.056227  0.110372  0.000000     16.000000
  0.078717  0.045447  0.000000     16.000000
  0.000000  0.090895  0.000000     16.000000
 -0.078717  0.045447  0.000000     16.000000
 -0.078717  0.136342  0.000000     16.000000
  0.022491 -0.103880  0.000000     16.000000
 -0.078717  0.071417  0.000000     16.000000
 


--------------------------------------------------------------------------------------------------------




 Dimension of arrays:
   k-points           NKPTS =     96   k-points in BZ     NKDIM =     96   number of bands    NBANDS=    100
   number of dos      NEDOS =    301   number of ions     NIONS =     21
   non local maximal  LDIM  =      6   non local SUM 2l+1 LMDIM =     18
   total plane-waves  NPLWV = 112896
   max r-space proj   IRMAX =   2252   max aug-charges    IRDMAX=  10104
   dimension x,y,z NGX =    28 NGY =   28 NGZ =  144
   dimension x,y,z NGXF=    56 NGYF=   56 NGZF=  288
   support grid    NGXF=    56 NGYF=   56 NGZF=  288
   ions per type =               1   1   4   1  14
   NGX,Y,Z   is equivalent  to a cutoff of   8.38,  8.38,  7.77 a.u.
   NGXF,Y,Z  is equivalent  to a cutoff of  16.75, 16.75, 15.54 a.u.

 SYSTEM =  0.4.Ir1.Au11                            
 POSCAR =  Au  C  H Ir Pt                          

 Startparameter for this run:
   NWRITE =      2    write-flag & timer
   PREC   = normal    normal or accurate (medium, high low for compatibility)
   ISTART =      0    job   : 0-new  1-cont  2-samecut
   ICHARG =      2    charge: 1-file 2-atom 10-const
   ISPIN  =      1    spin polarized calculation?
   LNONCOLLINEAR =      F non collinear calculations
   LSORBIT =      F    spin-orbit coupling
   INIWAV =      1    electr: 0-lowe 1-rand  2-diag
   LASPH  =      F    aspherical Exc in radial PAW
   METAGGA=      F    non-selfconsistent MetaGGA calc.

 Electronic Relaxation 1
   ENCUT  =  350.0 eV  25.72 Ry    5.07 a.u.   8.48  8.48 46.99*2*pi/ulx,y,z
   ENINI  =  350.0     initial cutoff
   ENAUG  =  644.9 eV  augmentation charge cutoff
   NELM   =   1000;   NELMIN=  5; NELMDL= -5     # of ELM steps 
   EDIFF  = 0.1E-04   stopping-criterion for ELM
   LREAL  =      T    real-space projection
   NLSPLINE    = F    spline interpolate recip. space projectors
   LCOMPAT=      F    compatible to vasp.4.4
   GGA_COMPAT  = T    GGA compatible to vasp.4.4-vasp.4.6
   LMAXPAW     = -100 max onsite density
   LMAXMIX     =    2 max onsite mixed and CHGCAR
   VOSKOWN=      0    Vosko Wilk Nusair interpolation
   ROPT   =   -0.00050  -0.00050  -0.00050  -0.00050
   ROPT   =   -0.00050
 Ionic relaxation
   EDIFFG = 0.1E-03   stopping-criterion for IOM
   NSW    =      0    number of steps for IOM
   NBLOCK =      1;   KBLOCK =      1    inner block; outer block 
   IBRION =     -1    ionic relax: 0-MD 1-quasi-New 2-CG
   NFREE  =      0    steps in history (QN), initial steepest desc. (CG)
   ISIF   =      2    stress and relaxation
   IWAVPR =     10    prediction:  0-non 1-charg 2-wave 3-comb
   ISYM   =      2    0-nonsym 1-usesym 2-fastsym
   LCORR  =      T    Harris-Foulkes like correction to forces

   POTIM  = 0.5000    time-step for ionic-motion
   TEIN   =    0.0    initial temperature
   TEBEG  =    0.0;   TEEND  =   0.0 temperature during run
   SMASS  =  -3.00    Nose mass-parameter (am)
   estimated Nose-frequenzy (Omega)   =  0.10E-29 period in steps =****** mass=  -0.706E-27a.u.
   SCALEE = 1.0000    scale energy and forces
   NPACO  =    256;   APACO  = 16.0  distance and # of slots for P.C.
   PSTRESS=    0.0 pullay stress

  Mass of Ions in am
   POMASS = 196.97 12.01  1.00192.22195.08
  Ionic Valenz
   ZVAL   =  11.00  4.00  1.00  9.00 10.00
  Atomic Wigner-Seitz radii
   RWIGS  =  -1.00 -1.00 -1.00 -1.00 -1.00
  virtual crystal weights 
   VCA    =   1.00  1.00  1.00  1.00  1.00
   NELECT =     168.0000    total number of electrons
   NUPDOWN=      -1.0000    fix difference up-down

 DOS related values:
   EMIN   =  10.00;   EMAX   =-10.00  energy-range for DOS
   EFERMI =   0.00
   ISMEAR =     1;   SIGMA  =   0.20  broadening in eV -4-tet -1-fermi 0-gaus

 Electronic relaxation 2 (details)
   IALGO  =     38    algorithm
   LDIAG  =      T    sub-space diagonalisation (order eigenvalues)
   LSUBROT=      F    optimize rotation matrix (better conditioning)
   TURBO    =      0    0=normal 1=particle mesh
   IRESTART =      0    0=no restart 2=restart with 2 vectors
   NREBOOT  =      0    no. of reboots
   NMIN     =      0    reboot dimension
   EREF     =   0.00    reference energy to select bands
   IMIX   =      4    mixing-type and parameters
     AMIX     =   0.40;   BMIX     =  1.00
     AMIX_MAG =   1.60;   BMIX_MAG =  1.00
     AMIN     =   0.10
     WC   =   100.;   INIMIX=   1;  MIXPRE=   1;  MAXMIX= -45

 Intra band minimization:
   WEIMIN = 0.0000     energy-eigenvalue tresh-hold
   EBREAK =  0.25E-07  absolut break condition
   DEPER  =   0.30     relativ break condition  

   TIME   =   0.40     timestep for ELM

  volume/ion in A,a.u.               =      39.24       264.83
  Fermi-wavevector in a.u.,A,eV,Ry     =   0.963488  1.820729 12.630418  0.928310
  Thomas-Fermi vector in A             =   2.093038
 
 Write flags
   LWAVE        =      F    write WAVECAR
   LDOWNSAMPLE  =      F    k-point downsampling of WAVECAR
   LCHARG       =      F    write CHGCAR
   LVTOT        =      F    write LOCPOT, total local potential
   LVHAR        =      F    write LOCPOT, Hartree potential only
   LELF         =      F    write electronic localiz. function (ELF)
   LORBIT       =      0    0 simple, 1 ext, 2 COOP (PROOUT), +10 PAW based schemes


 Dipole corrections
   LMONO  =      F    monopole corrections only (constant potential shift)
   LDIPOL =      F    correct potential (dipole corrections)
   IDIPOL =      3    1-x, 2-y, 3-z, 4-all directions 
   EPSILON=  1.0000000 bulk dielectric constant

 Exchange correlation treatment:
   GGA     =    --    GGA type
   LEXCH   =     8    internal setting for exchange type
   VOSKOWN=      0    Vosko Wilk Nusair interpolation
   LHFCALC =     F    Hartree Fock is set to
   LHFONE  =     F    Hartree Fock one center treatment
   AEXX    =    0.0000 exact exchange contribution

 Linear response parameters
   LEPSILON=     F    determine dielectric tensor
   LRPA    =     F    only Hartree local field effects (RPA)
   LNABLA  =     F    use nabla operator in PAW spheres
   LVEL    =     F    velocity operator in full k-point grid
   LINTERFAST=   F  fast interpolation
   KINTER  =     0    interpolate to denser k-point grid
   CSHIFT  =0.1000    complex shift for real part using Kramers Kronig
   OMEGAMAX=  -1.0    maximum frequency
   DEG_THRESHOLD= 0.2000000E-02 threshold for treating states as degnerate
   RTIME   =   -0.100 relaxation time in fs
  (WPLASMAI=    0.000 imaginary part of plasma frequency in eV, 0.658/RTIME)
   DFIELD  = 0.0000000 0.0000000 0.0000000 field for delta impulse in time
 
 Orbital magnetization related:
   ORBITALMAG=     F  switch on orbital magnetization
   LCHIMAG   =     F  perturbation theory with respect to B field
   DQ        =  0.001000  dq finite difference perturbation B field
   LLRAUG    =     F  two centre corrections for induced B field



--------------------------------------------------------------------------------------------------------


 Static calculation
 charge density and potential will be updated during run
 non-spin polarized calculation
 Variant of blocked Davidson
 Davidson routine will perform the subspace rotation
 perform sub-space diagonalisation
    after iterative eigenvector-optimisation
 modified Broyden-mixing scheme, WC =      100.0
 initial mixing is a Kerker type mixing with AMIX =  0.4000 and BMIX =      1.0000
 Hartree-type preconditioning will be used
 using additional bands           16
 real space projection scheme for non local part
 use partial core corrections
 calculate Harris-corrections to forces 
   (improved forces if not selfconsistent)
 use gradient corrections 
 use of overlap-Matrix (Vanderbilt PP)
 Methfessel and Paxton  Order N= 1 SIGMA  =   0.20


--------------------------------------------------------------------------------------------------------


  energy-cutoff  :      350.00
  volume of cell :      824.13
      direct lattice vectors                 reciprocal lattice vectors
     5.557859300  0.000000000  0.000000000     0.179925390 -0.103879972  0.000000000
     2.778929650  4.813247345  0.000000000     0.000000000  0.207759944  0.000000000
     0.000000000  0.000000000 30.806959674     0.000000000  0.000000000  0.032460198

  length of vectors
     5.557859300  5.557859300 30.806959674     0.207759944  0.207759944  0.032460198


 
 k-points in units of 2pi/SCALE and weight: 0.4.Ir1.Au11                            
   0.01124534  0.00649250  0.00000000       0.010
   0.00000000  0.01298500  0.00000000       0.010
  -0.01124534  0.00649250  0.00000000       0.010
   0.03373601 -0.00649250  0.00000000       0.010
   0.02249067  0.02596999  0.00000000       0.010
  -0.01124534  0.03246249  0.00000000       0.010
   0.02249067 -0.02596999  0.00000000       0.010
  -0.01124534 -0.03246249  0.00000000       0.010
  -0.03373601 -0.00649250  0.00000000       0.010
   0.05622668 -0.01947749  0.00000000       0.010
   0.04498135  0.03895499  0.00000000       0.010
  -0.01124534  0.05843248  0.00000000       0.010
   0.04498135 -0.03895499  0.00000000       0.010
  -0.01124534 -0.05843248  0.00000000       0.010
  -0.05622668 -0.01947749  0.00000000       0.010
   0.07871736 -0.03246249  0.00000000       0.010
   0.06747202  0.05193999  0.00000000       0.010
  -0.01124534  0.08440248  0.00000000       0.010
   0.06747202 -0.05193999  0.00000000       0.010
  -0.01124534 -0.08440248  0.00000000       0.010
  -0.07871736 -0.03246249  0.00000000       0.010
  -0.07871736  0.05843248  0.00000000       0.010
   0.08996269 -0.14283496  0.00000000       0.010
  -0.01124534  0.11037247  0.00000000       0.010
   0.08996269 -0.06492498  0.00000000       0.010
  -0.01124534  0.09738747  0.00000000       0.010
   0.07871736  0.05843248  0.00000000       0.010
  -0.05622668  0.04544749  0.00000000       0.010
  -0.06747202 -0.02596999  0.00000000       0.010
  -0.01124534 -0.07141748  0.00000000       0.010
  -0.06747202  0.02596999  0.00000000       0.010
  -0.01124534  0.07141748  0.00000000       0.010
   0.05622668  0.04544749  0.00000000       0.010
  -0.03373601  0.03246249  0.00000000       0.010
  -0.04498135 -0.01298500  0.00000000       0.010
  -0.01124534 -0.04544749  0.00000000       0.010
  -0.04498135  0.01298500  0.00000000       0.010
  -0.01124534  0.04544749  0.00000000       0.010
   0.03373601  0.03246249  0.00000000       0.010
  -0.01124534  0.01947749  0.00000000       0.010
  -0.02249067  0.00000000  0.00000000       0.010
  -0.01124534 -0.01947749  0.00000000       0.010
   0.03373601  0.01947749  0.00000000       0.010
   0.00000000  0.03895499  0.00000000       0.010
  -0.03373601  0.01947749  0.00000000       0.010
   0.05622668  0.00649250  0.00000000       0.010
   0.02249067  0.05193999  0.00000000       0.010
  -0.03373601  0.04544749  0.00000000       0.010
   0.02249067 -0.05193999  0.00000000       0.010
  -0.03373601 -0.04544749  0.00000000       0.010
  -0.05622668  0.00649250  0.00000000       0.010
   0.07871736 -0.00649250  0.00000000       0.010
   0.04498135  0.06492498  0.00000000       0.010
  -0.03373601  0.07141748  0.00000000       0.010
   0.04498135 -0.06492498  0.00000000       0.010
  -0.03373601 -0.07141748  0.00000000       0.010
  -0.07871736 -0.00649250  0.00000000       0.010
  -0.07871736  0.08440248  0.00000000       0.010
   0.06747202 -0.12984997  0.00000000       0.010
  -0.03373601  0.09738747  0.00000000       0.010
   0.06747202 -0.07790998  0.00000000       0.010
  -0.03373601  0.11037247  0.00000000       0.010
   0.07871736 -0.12335747  0.00000000       0.010
  -0.05622668  0.07141748  0.00000000       0.010
   0.08996269 -0.11686497  0.00000000       0.010
  -0.03373601  0.12335747  0.00000000       0.010
   0.08996269 -0.09089498  0.00000000       0.010
  -0.03373601  0.08440248  0.00000000       0.010
   0.05622668  0.07141748  0.00000000       0.010
  -0.03373601  0.05843248  0.00000000       0.010
  -0.06747202  0.00000000  0.00000000       0.010
  -0.03373601 -0.05843248  0.00000000       0.010
   0.05622668  0.03246249  0.00000000       0.010
   0.00000000  0.06492498  0.00000000       0.010
  -0.05622668  0.03246249  0.00000000       0.010
   0.07871736  0.01947749  0.00000000       0.010
   0.02249067  0.07790998  0.00000000       0.010
  -0.05622668  0.05843248  0.00000000       0.010
   0.02249067 -0.07790998  0.00000000       0.010
  -0.05622668 -0.05843248  0.00000000       0.010
  -0.07871736  0.01947749  0.00000000       0.010
  -0.07871736  0.11037247  0.00000000       0.010
   0.04498135 -0.11686497  0.00000000       0.010
  -0.05622668  0.08440248  0.00000000       0.010
   0.04498135 -0.09089498  0.00000000       0.010
  -0.05622668  0.12335747  0.00000000       0.010
   0.07871736 -0.09738747  0.00000000       0.010
  -0.05622668  0.09738747  0.00000000       0.010
   0.06747202 -0.10387997  0.00000000       0.010
  -0.05622668  0.11037247  0.00000000       0.010
   0.07871736  0.04544749  0.00000000       0.010
   0.00000000  0.09089498  0.00000000       0.010
  -0.07871736  0.04544749  0.00000000       0.010
  -0.07871736  0.13634246  0.00000000       0.010
   0.02249067 -0.10387997  0.00000000       0.010
  -0.07871736  0.07141748  0.00000000       0.010
 
 k-points in reciprocal lattice and weights: 0.4.Ir1.Au11                            
   0.06250000  0.06250000  0.00000000       0.010
   0.00000000  0.06250000  0.00000000       0.010
  -0.06250000  0.00000000  0.00000000       0.010
   0.18750000  0.06250000  0.00000000       0.010
   0.12500000  0.18750000  0.00000000       0.010
  -0.06250000  0.12500000  0.00000000       0.010
   0.12500000 -0.06250000  0.00000000       0.010
  -0.06250000 -0.18750000  0.00000000       0.010
  -0.18750000 -0.12500000  0.00000000       0.010
   0.31250000  0.06250000  0.00000000       0.010
   0.25000000  0.31250000  0.00000000       0.010
  -0.06250000  0.25000000  0.00000000       0.010
   0.25000000 -0.06250000  0.00000000       0.010
  -0.06250000 -0.31250000  0.00000000       0.010
  -0.31250000 -0.25000000  0.00000000       0.010
   0.43750000  0.06250000  0.00000000       0.010
   0.37500000  0.43750000  0.00000000       0.010
  -0.06250000  0.37500000  0.00000000       0.010
   0.37500000 -0.06250000  0.00000000       0.010
  -0.06250000 -0.43750000  0.00000000       0.010
  -0.43750000 -0.37500000  0.00000000       0.010
  -0.43750000  0.06250000  0.00000000       0.010
   0.50000000 -0.43750000  0.00000000       0.010
  -0.06250000  0.50000000  0.00000000       0.010
   0.50000000 -0.06250000  0.00000000       0.010
  -0.06250000  0.43750000  0.00000000       0.010
   0.43750000  0.50000000  0.00000000       0.010
  -0.31250000  0.06250000  0.00000000       0.010
  -0.37500000 -0.31250000  0.00000000       0.010
  -0.06250000 -0.37500000  0.00000000       0.010
  -0.37500000 -0.06250000  0.00000000       0.010
  -0.06250000  0.31250000  0.00000000       0.010
   0.31250000  0.37500000  0.00000000       0.010
  -0.18750000  0.06250000  0.00000000       0.010
  -0.25000000 -0.18750000  0.00000000       0.010
  -0.06250000 -0.25000000  0.00000000       0.010
  -0.25000000 -0.06250000  0.00000000       0.010
  -0.06250000  0.18750000  0.00000000       0.010
   0.18750000  0.25000000  0.00000000       0.010
  -0.06250000  0.06250000  0.00000000       0.010
  -0.12500000 -0.06250000  0.00000000       0.010
  -0.06250000 -0.12500000  0.00000000       0.010
   0.18750000  0.18750000  0.00000000       0.010
   0.00000000  0.18750000  0.00000000       0.010
  -0.18750000  0.00000000  0.00000000       0.010
   0.31250000  0.18750000  0.00000000       0.010
   0.12500000  0.31250000  0.00000000       0.010
  -0.18750000  0.12500000  0.00000000       0.010
   0.12500000 -0.18750000  0.00000000       0.010
  -0.18750000 -0.31250000  0.00000000       0.010
  -0.31250000 -0.12500000  0.00000000       0.010
   0.43750000  0.18750000  0.00000000       0.010
   0.25000000  0.43750000  0.00000000       0.010
  -0.18750000  0.25000000  0.00000000       0.010
   0.25000000 -0.18750000  0.00000000       0.010
  -0.18750000 -0.43750000  0.00000000       0.010
  -0.43750000 -0.25000000  0.00000000       0.010
  -0.43750000  0.18750000  0.00000000       0.010
   0.37500000 -0.43750000  0.00000000       0.010
  -0.18750000  0.37500000  0.00000000       0.010
   0.37500000 -0.18750000  0.00000000       0.010
  -0.18750000  0.43750000  0.00000000       0.010
   0.43750000 -0.37500000  0.00000000       0.010
  -0.31250000  0.18750000  0.00000000       0.010
   0.50000000 -0.31250000  0.00000000       0.010
  -0.18750000  0.50000000  0.00000000       0.010
   0.50000000 -0.18750000  0.00000000       0.010
  -0.18750000  0.31250000  0.00000000       0.010
   0.31250000  0.50000000  0.00000000       0.010
  -0.18750000  0.18750000  0.00000000       0.010
  -0.37500000 -0.18750000  0.00000000       0.010
  -0.18750000 -0.37500000  0.00000000       0.010
   0.31250000  0.31250000  0.00000000       0.010
   0.00000000  0.31250000  0.00000000       0.010
  -0.31250000  0.00000000  0.00000000       0.010
   0.43750000  0.31250000  0.00000000       0.010
   0.12500000  0.43750000  0.00000000       0.010
  -0.31250000  0.12500000  0.00000000       0.010
   0.12500000 -0.31250000  0.00000000       0.010
  -0.31250000 -0.43750000  0.00000000       0.010
  -0.43750000 -0.12500000  0.00000000       0.010
  -0.43750000  0.31250000  0.00000000       0.010
   0.25000000 -0.43750000  0.00000000       0.010
  -0.31250000  0.25000000  0.00000000       0.010
   0.25000000 -0.31250000  0.00000000       0.010
  -0.31250000  0.43750000  0.00000000       0.010
   0.43750000 -0.25000000  0.00000000       0.010
  -0.31250000  0.31250000  0.00000000       0.010
   0.37500000 -0.31250000  0.00000000       0.010
  -0.31250000  0.37500000  0.00000000       0.010
   0.43750000  0.43750000  0.00000000       0.010
   0.00000000  0.43750000  0.00000000       0.010
  -0.43750000  0.00000000  0.00000000       0.010
  -0.43750000  0.43750000  0.00000000       0.010
   0.12500000 -0.43750000  0.00000000       0.010
  -0.43750000  0.12500000  0.00000000       0.010
 
 position of ions in fractional coordinates (direct lattice) 
   0.33322164  0.83793208  0.53937300
   0.98986533  0.02519169  0.73572992
   0.99747173  0.16761972  0.71161101
   0.79455777  0.13528302  0.75411282
   0.00013034  0.84564827  0.71894416
   0.16778675  0.95254753  0.75794723
   0.50000000  0.00000000  0.38952237
   0.50012916  0.50648614  0.61491355
   0.00047197  0.50638703  0.61493300
   0.50004708  0.00683978  0.61494346
   0.00018617  0.00688817  0.61478395
   0.00000000  0.00000000  0.38952237
   0.83345204  0.33783857  0.53938347
   0.66668751  0.66886601  0.46492125
   0.16684605  0.66856484  0.46487625
   0.66652771  0.16893469  0.46487204
   0.16667512  0.16891061  0.46488200
   0.50000000  0.50000000  0.38952237
   0.00000000  0.50000000  0.38952237
   0.33337473  0.33781540  0.53940463
   0.83366715  0.83793767  0.53935933
 
 position of ions in cartesian coordinates  (Angst):
   4.18055329  4.03317435 16.61644236
   5.57153815  0.12125383 22.66560193
   6.00961093  0.80679519 21.92257160
   4.79198227  0.65115064 23.23192323
   2.35072143  4.07031427 22.14848364
   3.57959773  4.58484687 23.35004987
   2.77892965  0.00000000 12.00000000
   4.18713688  2.43784308 18.94361701
   1.40983708  2.43736601 18.94421609
   2.79819859  0.03292156 18.94453837
   0.02017642  0.03315447 18.93962428
   0.00000000  0.00000000 12.00000000
   5.57103881  1.62610062 16.61676469
   5.56408696  3.21941754 14.32281011
   2.78520152  3.21796792 14.32142384
   4.17392483  0.81312443 14.32129406
   1.39574755  0.81300856 14.32160116
   4.16839448  2.40662367 12.00000000
   1.38946483  2.40662367 12.00000000
   2.79161509  1.62598910 16.61741682
   6.96197455  4.03320124 16.61602112
 


--------------------------------------------------------------------------------------------------------


 k-point  1 :   0.0625 0.0625 0.0000  plane waves:   12325
 k-point  2 :   0.0000 0.0625 0.0000  plane waves:   12325
 k-point  3 :  -0.0625 0.0000 0.0000  plane waves:   12325
 k-point  4 :   0.1875 0.0625 0.0000  plane waves:   12294
 k-point  5 :   0.1250 0.1875 0.0000  plane waves:   12294
 k-point  6 :  -0.0625 0.1250 0.0000  plane waves:   12294
 k-point  7 :   0.1250-0.0625 0.0000  plane waves:   12294
 k-point  8 :  -0.0625-0.1875 0.0000  plane waves:   12294
 k-point  9 :  -0.1875-0.1250 0.0000  plane waves:   12294
 k-point 10 :   0.3125 0.0625 0.0000  plane waves:   12263
 k-point 11 :   0.2500 0.3125 0.0000  plane waves:   12263
 k-point 12 :  -0.0625 0.2500 0.0000  plane waves:   12263
 k-point 13 :   0.2500-0.0625 0.0000  plane waves:   12263
 k-point 14 :  -0.0625-0.3125 0.0000  plane waves:   12263
 k-point 15 :  -0.3125-0.2500 0.0000  plane waves:   12263
 k-point 16 :   0.4375 0.0625 0.0000  plane waves:   12221
 k-point 17 :   0.3750 0.4375 0.0000  plane waves:   12221
 k-point 18 :  -0.0625 0.3750 0.0000  plane waves:   12221
 k-point 19 :   0.3750-0.0625 0.0000  plane waves:   12221
 k-point 20 :  -0.0625-0.4375 0.0000  plane waves:   12221
 k-point 21 :  -0.4375-0.3750 0.0000  plane waves:   12221
 k-point 22 :  -0.4375 0.0625 0.0000  plane waves:   12211
 k-point 23 :   0.5000-0.4375 0.0000  plane waves:   12211
 k-point 24 :  -0.0625 0.5000 0.0000  plane waves:   12211
 k-point 25 :   0.5000-0.0625 0.0000  plane waves:   12211
 k-point 26 :  -0.0625 0.4375 0.0000  plane waves:   12211
 k-point 27 :   0.4375 0.5000 0.0000  plane waves:   12211
 k-point 28 :  -0.3125 0.0625 0.0000  plane waves:   12242
 k-point 29 :  -0.3750-0.3125 0.0000  plane waves:   12242
 k-point 30 :  -0.0625-0.3750 0.0000  plane waves:   12242
 k-point 31 :  -0.3750-0.0625 0.0000  plane waves:   12242
 k-point 32 :  -0.0625 0.3125 0.0000  plane waves:   12242
 k-point 33 :   0.3125 0.3750 0.0000  plane waves:   12242
 k-point 34 :  -0.1875 0.0625 0.0000  plane waves:   12280
 k-point 35 :  -0.2500-0.1875 0.0000  plane waves:   12280
 k-point 36 :  -0.0625-0.2500 0.0000  plane waves:   12280
 k-point 37 :  -0.2500-0.0625 0.0000  plane waves:   12280
 k-point 38 :  -0.0625 0.1875 0.0000  plane waves:   12280
 k-point 39 :   0.1875 0.2500 0.0000  plane waves:   12280
 k-point 40 :  -0.0625 0.0625 0.0000  plane waves:   12329
 k-point 41 :  -0.1250-0.0625 0.0000  plane waves:   12329
 k-point 42 :  -0.0625-0.1250 0.0000  plane waves:   12329
 k-point 43 :   0.1875 0.1875 0.0000  plane waves:   12277
 k-point 44 :   0.0000 0.1875 0.0000  plane waves:   12277
 k-point 45 :  -0.1875 0.0000 0.0000  plane waves:   12277
 k-point 46 :   0.3125 0.1875 0.0000  plane waves:   12288
 k-point 47 :   0.1250 0.3125 0.0000  plane waves:   12288
 k-point 48 :  -0.1875 0.1250 0.0000  plane waves:   12288
 k-point 49 :   0.1250-0.1875 0.0000  plane waves:   12288
 k-point 50 :  -0.1875-0.3125 0.0000  plane waves:   12288
 k-point 51 :  -0.3125-0.1250 0.0000  plane waves:   12288
 k-point 52 :   0.4375 0.1875 0.0000  plane waves:   12234
 k-point 53 :   0.2500 0.4375 0.0000  plane waves:   12234
 k-point 54 :  -0.1875 0.2500 0.0000  plane waves:   12234
 k-point 55 :   0.2500-0.1875 0.0000  plane waves:   12234
 k-point 56 :  -0.1875-0.4375 0.0000  plane waves:   12234
 k-point 57 :  -0.4375-0.2500 0.0000  plane waves:   12234
 k-point 58 :  -0.4375 0.1875 0.0000  plane waves:   12216
 k-point 59 :   0.3750-0.4375 0.0000  plane waves:   12216
 k-point 60 :  -0.1875 0.3750 0.0000  plane waves:   12216
 k-point 61 :   0.3750-0.1875 0.0000  plane waves:   12216
 k-point 62 :  -0.1875 0.4375 0.0000  plane waves:   12216
 k-point 63 :   0.4375-0.3750 0.0000  plane waves:   12216
 k-point 64 :  -0.3125 0.1875 0.0000  plane waves:   12215
 k-point 65 :   0.5000-0.3125 0.0000  plane waves:   12215
 k-point 66 :  -0.1875 0.5000 0.0000  plane waves:   12215
 k-point 67 :   0.5000-0.1875 0.0000  plane waves:   12215
 k-point 68 :  -0.1875 0.3125 0.0000  plane waves:   12215
 k-point 69 :   0.3125 0.5000 0.0000  plane waves:   12215
 k-point 70 :  -0.1875 0.1875 0.0000  plane waves:   12289
 k-point 71 :  -0.3750-0.1875 0.0000  plane waves:   12289
 k-point 72 :  -0.1875-0.3750 0.0000  plane waves:   12289
 k-point 73 :   0.3125 0.3125 0.0000  plane waves:   12275
 k-point 74 :   0.0000 0.3125 0.0000  plane waves:   12275
 k-point 75 :  -0.3125 0.0000 0.0000  plane waves:   12275
 k-point 76 :   0.4375 0.3125 0.0000  plane waves:   12239
 k-point 77 :   0.1250 0.4375 0.0000  plane waves:   12239
 k-point 78 :  -0.3125 0.1250 0.0000  plane waves:   12239
 k-point 79 :   0.1250-0.3125 0.0000  plane waves:   12239
 k-point 80 :  -0.3125-0.4375 0.0000  plane waves:   12239
 k-point 81 :  -0.4375-0.1250 0.0000  plane waves:   12239
 k-point 82 :  -0.4375 0.3125 0.0000  plane waves:   12235
 k-point 83 :   0.2500-0.4375 0.0000  plane waves:   12235
 k-point 84 :  -0.3125 0.2500 0.0000  plane waves:   12235
 k-point 85 :   0.2500-0.3125 0.0000  plane waves:   12235
 k-point 86 :  -0.3125 0.4375 0.0000  plane waves:   12235
 k-point 87 :   0.4375-0.2500 0.0000  plane waves:   12235
 k-point 88 :  -0.3125 0.3125 0.0000  plane waves:   12232
 k-point 89 :   0.3750-0.3125 0.0000  plane waves:   12232
 k-point 90 :  -0.3125 0.3750 0.0000  plane waves:   12232
 k-point 91 :   0.4375 0.4375 0.0000  plane waves:   12200
 k-point 92 :   0.0000 0.4375 0.0000  plane waves:   12200
 k-point 93 :  -0.4375 0.0000 0.0000  plane waves:   12200
 k-point 94 :  -0.4375 0.4375 0.0000  plane waves:   12214
 k-point 95 :   0.1250-0.4375 0.0000  plane waves:   12214
 k-point 96 :  -0.4375 0.1250 0.0000  plane waves:   12214

 maximum and minimum number of plane-waves per node :      3101     2992

 maximum number of plane-waves:     12329
 maximum index in each direction: 
   IXMAX=    8   IYMAX=    8   IZMAX=   46
   IXMIN=   -8   IYMIN=   -8   IZMIN=  -46


 real space projection operators:
  total allocation   :       5079.80 KBytes
  max/ min on nodes  :       1273.78       1267.54


 parallel 3D FFT for wavefunctions:
    minimum data exchange during FFTs selected (reduces bandwidth)
 parallel 3D FFT for charge:
    minimum data exchange during FFTs selected (reduces bandwidth)


 total amount of memory used by VASP MPI-rank0   164306. kBytes
=======================================================================

   base      :      30000. kBytes
   nonlr-proj:       2353. kBytes
   fftplans  :       2967. kBytes
   grid      :       6321. kBytes
   one-center:         93. kBytes
   wavefun   :     122572. kBytes
 
     INWAV:  cpu time    0.0000: real time    0.0000
 Broyden mixing: mesh for mixing (old mesh)
   NGX = 17   NGY = 17   NGZ = 93
  (NGX  = 56   NGY  = 56   NGZ  =288)
  gives a total of  26877 points

 initial charge density was supplied:
 charge density of overlapping atoms calculated
 number of electron     168.0000000 magnetization 
 keeping initial charge density in first step


--------------------------------------------------------------------------------------------------------


 Maximum index for non-local projection operator          536
 Maximum index for augmentation-charges          727 (set IRDMAX)


--------------------------------------------------------------------------------------------------------


 First call to EWALD:  gamma=   0.189
 Maximum number of real-space cells 5x 5x 1
 Maximum number of reciprocal cells 2x 2x 8

    FEWALD:  cpu time    0.0013: real time    0.0013


--------------------------------------- Iteration      1(   1)  ---------------------------------------


    POTLOK:  cpu time    0.0258: real time    0.0317
    SETDIJ:  cpu time    0.0034: real time    0.0035
     EDDAV:  cpu time   13.6619: real time   13.6961
       DOS:  cpu time    0.0075: real time    0.0075
    --------------------------------------------
      LOOP:  cpu time   13.6986: real time   13.7387

 eigenvalue-minimisations  : 19320
 total energy-change (2. order) : 0.1013718E+04  (-0.5819863E+04)
 number of electron     168.0000000 magnetization 
 augmentation part      168.0000000 magnetization 

 Free energy of the ion-electron system (eV)
  ---------------------------------------------------
  alpha Z        PSCENC =       324.87461712
  Ewald energy   TEWEN  =     98709.10712089
  -Hartree energ DENC   =   -110998.62687237
  -exchange      EXHF   =         0.00000000
  -V(xc)+E(xc)   XCENC  =        68.39487368
  PAW double counting   =     11288.27476651   -10829.50941267
  entropy T*S    EENTRO =        -0.00190150
  eigenvalues    EBANDS =       560.56752493
  atomic energy  EATOM  =     11890.63736546
  Solvation  Ediel_sol  =         0.00000000
  ---------------------------------------------------
  free energy    TOTEN  =      1013.71808205 eV

  energy without entropy =     1013.71998355  energy(sigma->0) =     1013.71871588


--------------------------------------------------------------------------------------------------------




--------------------------------------- Iteration      1(   2)  ---------------------------------------


     EDDAV:  cpu time   16.0465: real time   16.0877
       DOS:  cpu time    0.0084: real time    0.0084
    --------------------------------------------
      LOOP:  cpu time   16.0549: real time   16.0961

 eigenvalue-minimisations  : 23792
 total energy-change (2. order) :-0.1042820E+04  (-0.9687577E+03)
 number of electron     168.0000000 magnetization 
 augmentation part      168.0000000 magnetization 

 Free energy of the ion-electron system (eV)
  ---------------------------------------------------
  alpha Z        PSCENC =       324.87461712
  Ewald energy   TEWEN  =     98709.10712089
  -Hartree energ DENC   =   -110998.62687237
  -exchange      EXHF   =         0.00000000
  -V(xc)+E(xc)   XCENC  =        68.39487368
  PAW double counting   =     11288.27476651   -10829.50941267
  entropy T*S    EENTRO =        -0.00199317
  eigenvalues    EBANDS =      -482.25286535
  atomic energy  EATOM  =     11890.63736546
  Solvation  Ediel_sol  =         0.00000000
  ---------------------------------------------------
  free energy    TOTEN  =       -29.10239990 eV

  energy without entropy =      -29.10040673  energy(sigma->0) =      -29.10173551


--------------------------------------------------------------------------------------------------------




--------------------------------------- Iteration      1(   3)  ---------------------------------------


     EDDAV:  cpu time   15.6304: real time   15.6859
       DOS:  cpu time    0.0084: real time    0.0085
    --------------------------------------------
      LOOP:  cpu time   15.6389: real time   15.6944

 eigenvalue-minimisations  : 23048
 total energy-change (2. order) :-0.9181406E+02  (-0.8484465E+02)
 number of electron     168.0000000 magnetization 
 augmentation part      168.0000000 magnetization 

 Free energy of the ion-electron system (eV)
  ---------------------------------------------------
  alpha Z        PSCENC =       324.87461712
  Ewald energy   TEWEN  =     98709.10712089
  -Hartree energ DENC   =   -110998.62687237
  -exchange      EXHF   =         0.00000000
  -V(xc)+E(xc)   XCENC  =        68.39487368
  PAW double counting   =     11288.27476651   -10829.50941267
  entropy T*S    EENTRO =        -0.00918811
  eigenvalues    EBANDS =      -574.05973038
  atomic energy  EATOM  =     11890.63736546
  Solvation  Ediel_sol  =         0.00000000
  ---------------------------------------------------
  free energy    TOTEN  =      -120.91645987 eV

  energy without entropy =     -120.90727176  energy(sigma->0) =     -120.91339717


--------------------------------------------------------------------------------------------------------




--------------------------------------- Iteration      1(   4)  ---------------------------------------


     EDDAV:  cpu time   17.0455: real time   17.0974
       DOS:  cpu time    0.0087: real time    0.0087
    --------------------------------------------
      LOOP:  cpu time   17.0542: real time   17.1061

 eigenvalue-minimisations  : 25760
 total energy-change (2. order) :-0.4498774E+01  (-0.4269725E+01)
 number of electron     168.0000000 magnetization 
 augmentation part      168.0000000 magnetization 

 Free energy of the ion-electron system (eV)
  ---------------------------------------------------
  alpha Z        PSCENC =       324.87461712
  Ewald energy   TEWEN  =     98709.10712089
  -Hartree energ DENC   =   -110998.62687237
  -exchange      EXHF   =         0.00000000
  -V(xc)+E(xc)   XCENC  =        68.39487368
  PAW double counting   =     11288.27476651   -10829.50941267
  entropy T*S    EENTRO =        -0.00795961
  eigenvalues    EBANDS =      -578.55973280
  atomic energy  EATOM  =     11890.63736546
  Solvation  Ediel_sol  =         0.00000000
  ---------------------------------------------------
  free energy    TOTEN  =      -125.41523379 eV

  energy without entropy =     -125.40727418  energy(sigma->0) =     -125.41258059


--------------------------------------------------------------------------------------------------------




--------------------------------------- Iteration      1(   5)  ---------------------------------------


     EDDAV:  cpu time   17.6662: real time   17.7136
       DOS:  cpu time    0.0089: real time    0.0089
    CHARGE:  cpu time    0.7121: real time    0.7137
    MIXING:  cpu time    0.0010: real time    0.0010
    --------------------------------------------
      LOOP:  cpu time   18.3880: real time   18.4372

 eigenvalue-minimisations  : 26852
 total energy-change (2. order) :-0.1471842E+00  (-0.1458542E+00)
 number of electron     168.0000053 magnetization 
 augmentation part       47.1610672 magnetization 

 Broyden mixing:
  rms(total) = 0.42548E+01    rms(broyden)= 0.42547E+01
  rms(prec ) = 0.42965E+01
  weight for this iteration     100.00

 Free energy of the ion-electron system (eV)
  ---------------------------------------------------
  alpha Z        PSCENC =       324.87461712
  Ewald energy   TEWEN  =     98709.10712089
  -Hartree energ DENC   =   -110998.62687237
  -exchange      EXHF   =         0.00000000
  -V(xc)+E(xc)   XCENC  =        68.39487368
  PAW double counting   =     11288.27476651   -10829.50941267
  entropy T*S    EENTRO =        -0.00783429
  eigenvalues    EBANDS =      -578.70704236
  atomic energy  EATOM  =     11890.63736546
  Solvation  Ediel_sol  =         0.00000000
  ---------------------------------------------------
  free energy    TOTEN  =      -125.56241803 eV

  energy without entropy =     -125.55458374  energy(sigma->0) =     -125.55980660


--------------------------------------------------------------------------------------------------------




--------------------------------------- Iteration      1(   6)  ---------------------------------------


    POTLOK:  cpu time    0.0237: real time    0.0239
    SETDIJ:  cpu time    0.0033: real time    0.0033
     EDDAV:  cpu time   15.3360: real time   15.3735
       DOS:  cpu time    0.0101: real time    0.0101
    CHARGE:  cpu time    0.7375: real time    0.7393
    MIXING:  cpu time    0.0010: real time    0.0011
    --------------------------------------------
      LOOP:  cpu time   16.1117: real time   16.1512

 eigenvalue-minimisations  : 22608
 total energy-change (2. order) : 0.5486382E+01  (-0.3205256E+01)
 number of electron     168.0000048 magnetization 
 augmentation part       49.7189922 magnetization 

 Broyden mixing:
  rms(total) = 0.34700E+01    rms(broyden)= 0.34699E+01
  rms(prec ) = 0.37861E+01
  weight for this iteration     100.00

 eigenvalues of (default mixing * dielectric matrix)
  average eigenvalue GAMMA=   0.9779
  0.9779

 Free energy of the ion-electron system (eV)
  ---------------------------------------------------
  alpha Z        PSCENC =       324.87461712
  Ewald energy   TEWEN  =     98709.10712089
  -Hartree energ DENC   =   -110807.76952314
  -exchange      EXHF   =         0.00000000
  -V(xc)+E(xc)   XCENC  =        65.41326508
  PAW double counting   =     12551.80476509   -12116.45128813
  entropy T*S    EENTRO =         0.00807325
  eigenvalues    EBANDS =      -737.70043182
  atomic energy  EATOM  =     11890.63736546
  Solvation  Ediel_sol  =         0.00000000
  ---------------------------------------------------
  free energy    TOTEN  =      -120.07603620 eV

  energy without entropy =     -120.08410945  energy(sigma->0) =     -120.07872728


--------------------------------------------------------------------------------------------------------




--------------------------------------- Iteration      1(   7)  ---------------------------------------


    POTLOK:  cpu time    0.0227: real time    0.0279
    SETDIJ:  cpu time    0.0033: real time    0.0033
     EDDAV:  cpu time   18.7574: real time   18.8032
       DOS:  cpu time    0.0085: real time    0.0085
    CHARGE:  cpu time    0.7114: real time    0.7131
    MIXING:  cpu time    0.0011: real time    0.0011
    --------------------------------------------
      LOOP:  cpu time   19.5044: real time   19.5571

 eigenvalue-minimisations  : 28952
 total energy-change (2. order) :-0.5179265E+02  (-0.2296586E+02)
 number of electron     168.0000047 magnetization 
 augmentation part       47.8617160 magnetization 

 Broyden mixing:
  rms(total) = 0.57489E+01    rms(broyden)= 0.57488E+01
  rms(prec ) = 0.73374E+01
  weight for this iteration     100.00

 eigenvalues of (default mixing * dielectric matrix)
  average eigenvalue GAMMA=   0.8950
  1.6265  0.1636

 Free energy of the ion-electron system (eV)
  ---------------------------------------------------
  alpha Z        PSCENC =       324.87461712
  Ewald energy   TEWEN  =     98709.10712089
  -Hartree energ DENC   =   -110895.69762695
  -exchange      EXHF   =         0.00000000
  -V(xc)+E(xc)   XCENC  =        64.93489136
  PAW double counting   =     13184.14641772   -12755.70733793
  entropy T*S    EENTRO =        -0.00926930
  eigenvalues    EBANDS =      -694.15486698
  atomic energy  EATOM  =     11890.63736546
  Solvation  Ediel_sol  =         0.00000000
  ---------------------------------------------------
  free energy    TOTEN  =      -171.86868860 eV

  energy without entropy =     -171.85941930  energy(sigma->0) =     -171.86559883


--------------------------------------------------------------------------------------------------------




--------------------------------------- Iteration      1(   8)  ---------------------------------------


    POTLOK:  cpu time    0.0228: real time    0.0232
    SETDIJ:  cpu time    0.0034: real time    0.0034
     EDDAV:  cpu time   18.0822: real time   18.1363
       DOS:  cpu time    0.0098: real time    0.0098
    CHARGE:  cpu time    0.7110: real time    0.7126
    MIXING:  cpu time    0.0013: real time    0.0013
    --------------------------------------------
      LOOP:  cpu time   18.8304: real time   18.8866

 eigenvalue-minimisations  : 27580
 total energy-change (2. order) : 0.2617074E+02  (-0.1038150E+02)
 number of electron     168.0000067 magnetization 
 augmentation part       49.2881258 magnetization 

 Broyden mixing:
  rms(total) = 0.45484E+01    rms(broyden)= 0.45483E+01
  rms(prec ) = 0.50893E+01
  weight for this iteration     100.00

 eigenvalues of (default mixing * dielectric matrix)
  average eigenvalue GAMMA=   0.8383
  2.0813  0.2167  0.2167

 Free energy of the ion-electron system (eV)
  ---------------------------------------------------
[...]
     21      -5.2949      2.00000
     22      -5.1801      2.00000
     23      -5.1174      2.00000
     24      -5.0155      2.00000
     25      -4.9505      2.00000
     26      -4.9353      2.00000
     27      -4.8915      2.00000
     28      -4.8392      2.00000
     29      -4.8068      2.00000
     30      -4.5937      2.00000
     31      -4.5638      2.00000
     32      -4.5137      2.00000
     33      -4.4951      2.00000
     34      -4.4227      2.00000
     35      -4.3919      2.00000
     36      -4.3415      2.00000
     37      -4.2908      2.00000
     38      -4.2500      2.00000
     39      -4.1092      2.00000
     40      -4.1005      2.00000
     41      -3.9448      2.00000
     42      -3.8999      2.00000
     43      -3.8878      2.00000
     44      -3.8233      2.00000
     45      -3.7464      2.00000
     46      -3.6018      2.00000
     47      -3.5602      2.00000
     48      -3.5533      2.00000
     49      -3.4876      2.00000
     50      -3.4702      2.00000
     51      -3.4392      2.00000
     52      -3.4083      2.00000
     53      -3.3523      2.00000
     54      -3.2517      2.00000
     55      -3.1838      2.00000
     56      -3.0981      2.00000
     57      -2.9978      2.00000
     58      -2.8921      2.00000
     59      -2.7364      2.00000
     60      -2.6870      2.00000
     61      -2.6601      2.00000
     62      -2.6186      2.00000
     63      -2.4773      2.00000
     64      -2.3889      2.00000
     65      -2.2573      2.00000
     66      -2.2391      2.00000
     67      -2.1268      2.00000
     68      -2.0318      2.00000
     69      -2.0012      2.00000
     70      -1.9462      2.00000
     71      -1.8596      2.00000
     72      -1.8507      2.00000
     73      -1.7656      2.00000
     74      -1.6832      2.00000
     75      -1.6153      2.00000
     76      -1.5350      2.00000
     77      -1.4911      2.00000
     78      -1.3877      2.00000
     79      -1.2054      2.00043
     80      -1.0800      2.00742
     81      -1.0539      2.01191
     82      -0.9666      2.04140
     83      -0.8444      2.05773
     84      -0.7783      1.92654
     85      -0.6908      1.44309
     86      -0.5896      0.61697
     87      -0.5542      0.36594
     88      -0.3773     -0.06955
     89      -0.2496     -0.01971
     90      -0.1930     -0.00748
     91       0.3869     -0.00000
     92       0.7650     -0.00000
     93       1.6737     -0.00000
     94       1.7331     -0.00000
     95       1.8399     -0.00000
     96       2.4997     -0.00000
     97       3.4229     -0.00000
     98       3.6028     -0.00000
     99       4.1642     -0.00000
    100       4.2026     -0.00000

 k-point    96 :      -0.4375    0.1250    0.0000
  band No.  band energies     occupation 
      1     -12.0974      2.00000
      2      -8.1648      2.00000
      3      -8.1046      2.00000
      4      -7.0970      2.00000
      5      -7.0712      2.00000
      6      -6.7127      2.00000
      7      -6.4463      2.00000
      8      -6.3568      2.00000
      9      -6.2800      2.00000
     10      -6.2358      2.00000
     11      -6.1090      2.00000
     12      -6.0751      2.00000
     13      -6.0132      2.00000
     14      -5.9576      2.00000
     15      -5.8222      2.00000
     16      -5.6466      2.00000
     17      -5.6104      2.00000
     18      -5.5440      2.00000
     19      -5.5131      2.00000
     20      -5.3509      2.00000
     21      -5.2908      2.00000
     22      -5.1822      2.00000
     23      -5.1180      2.00000
     24      -5.0152      2.00000
     25      -4.9491      2.00000
     26      -4.9322      2.00000
     27      -4.8869      2.00000
     28      -4.8333      2.00000
     29      -4.8069      2.00000
     30      -4.5691      2.00000
     31      -4.5586      2.00000
     32      -4.5302      2.00000
     33      -4.5013      2.00000
     34      -4.4244      2.00000
     35      -4.3879      2.00000
     36      -4.3368      2.00000
     37      -4.2910      2.00000
     38      -4.2470      2.00000
     39      -4.1015      2.00000
     40      -4.0925      2.00000
     41      -3.9391      2.00000
     42      -3.8972      2.00000
     43      -3.8821      2.00000
     44      -3.8226      2.00000
     45      -3.7486      2.00000
     46      -3.6028      2.00000
     47      -3.5610      2.00000
     48      -3.5583      2.00000
     49      -3.4891      2.00000
     50      -3.4800      2.00000
     51      -3.4422      2.00000
     52      -3.4110      2.00000
     53      -3.3496      2.00000
     54      -3.2512      2.00000
     55      -3.1801      2.00000
     56      -3.0984      2.00000
     57      -2.9920      2.00000
     58      -2.8885      2.00000
     59      -2.7344      2.00000
     60      -2.6882      2.00000
     61      -2.6518      2.00000
     62      -2.6168      2.00000
     63      -2.4808      2.00000
     64      -2.3951      2.00000
     65      -2.2645      2.00000
     66      -2.2393      2.00000
     67      -2.1272      2.00000
     68      -2.0311      2.00000
     69      -2.0048      2.00000
     70      -1.9458      2.00000
     71      -1.8643      2.00000
     72      -1.8407      2.00000
     73      -1.7648      2.00000
     74      -1.6872      2.00000
     75      -1.6147      2.00000
     76      -1.5398      2.00000
     77      -1.4926      2.00000
     78      -1.3869      2.00000
     79      -1.2075      2.00041
     80      -1.0793      2.00751
     81      -1.0535      2.01199
     82      -0.9632      2.04295
     83      -0.8437      2.05711
     84      -0.7739      1.91125
     85      -0.6923      1.45403
     86      -0.5875      0.60048
     87      -0.5564      0.37982
     88      -0.3861     -0.07071
     89      -0.2496     -0.01970
     90      -0.2023     -0.00890
     91       0.3872     -0.00000
     92       0.7640     -0.00000
     93       1.6727     -0.00000
     94       1.7128     -0.00000
     95       1.8470     -0.00000
     96       2.4992     -0.00000
     97       3.4212     -0.00000
     98       3.6040     -0.00000
     99       4.1339     -0.00000
    100       4.1901     -0.00000


--------------------------------------------------------------------------------------------------------


 soft charge-density along one line, spin component           1
         0         1         2         3         4         5         6         7         8         9
 total charge-density along one line
 
 pseudopotential strength for first ion, spin component:           1
 -8.033  -0.000   0.001  -0.007   0.000  -8.180  -0.000   0.001
 -0.000  -8.017   0.000  -0.000  -0.007  -0.000  -8.164   0.000
  0.001   0.000  -8.034   0.000   0.001   0.001   0.000  -8.181
 -0.007  -0.000   0.000  -8.016  -0.000  -0.007  -0.000   0.000
  0.000  -0.007   0.001  -0.000  -8.034   0.000  -0.007   0.001
 -8.180  -0.000   0.001  -0.007   0.000  -8.311  -0.000   0.001
 -0.000  -8.164   0.000  -0.000  -0.007  -0.000  -8.295   0.000
  0.001   0.000  -8.181   0.000   0.001   0.001   0.000  -8.311
 -0.007  -0.000   0.000  -8.163  -0.000  -0.007  -0.000   0.000
  0.000  -0.007   0.001  -0.000  -8.181   0.000  -0.007   0.001
  0.000  -0.000  -0.001  -0.000   0.000   0.000  -0.000  -0.001
  0.000  -0.000  -0.002  -0.000   0.000   0.000  -0.000  -0.002
  0.000  -0.002  -0.000   0.000  -0.000   0.000  -0.002  -0.000
  0.000   0.000  -0.002   0.000   0.000  -0.000   0.000  -0.002
 -0.000   0.000   0.000  -0.002  -0.000  -0.000  -0.000   0.000
 -0.000  -0.002  -0.000  -0.000  -0.000  -0.000  -0.002  -0.000
 -0.000   0.000  -0.003   0.000   0.000  -0.000   0.000  -0.003
 -0.000  -0.000   0.000  -0.002  -0.000  -0.000  -0.000   0.000
 total augmentation occupancy for first ion, spin component:           1
  6.195  -0.018   0.040   0.235   0.013  -4.182   0.016  -0.030  -0.335  -0.010   0.004  -0.000   0.001   0.003   0.000  -0.000
 -0.018   6.231  -0.001   0.004   0.242   0.016  -4.035   0.005   0.002  -0.342   0.004   0.001   0.005  -0.001   0.001  -0.002
  0.040  -0.001   6.130   0.002   0.030  -0.030   0.005  -4.220   0.003  -0.022   0.077  -0.034  -0.000   0.025  -0.003  -0.000
  0.235   0.004   0.002   6.249  -0.018  -0.335   0.002   0.003  -4.037   0.015   0.009   0.001   0.001   0.002   0.006  -0.000
  0.013   0.242   0.030  -0.018   6.158  -0.010  -0.342  -0.022   0.015  -4.152   0.005  -0.001   0.002   0.001   0.002  -0.000
 -4.182   0.016  -0.030  -0.335  -0.010   4.083  -0.014   0.022   0.411   0.008  -0.006   0.002  -0.001  -0.002  -0.002   0.000
  0.016  -4.035   0.005   0.002  -0.342  -0.014   3.787  -0.008  -0.006   0.418  -0.005  -0.000  -0.011   0.001  -0.001   0.001
 -0.030   0.005  -4.220   0.003  -0.022   0.022  -0.008   4.195  -0.008   0.015  -0.086   0.033   0.000  -0.025   0.002  -0.000
 -0.335   0.002   0.003  -4.037   0.015   0.411  -0.006  -0.008   3.777  -0.014  -0.010   0.001  -0.001  -0.002  -0.011   0.000
 -0.010  -0.342  -0.022   0.015  -4.152   0.008   0.418   0.015  -0.014   4.058  -0.006   0.002  -0.004  -0.001  -0.003   0.000
  0.004   0.004   0.077   0.009   0.005  -0.006  -0.005  -0.086  -0.010  -0.006   3.050  -0.841   0.001  -0.019  -0.001   0.000
 -0.000   0.001  -0.034   0.001  -0.001   0.002  -0.000   0.033   0.001   0.002  -0.841   0.254  -0.000   0.006   0.000  -0.000
  0.001   0.005  -0.000   0.001   0.002  -0.001  -0.011   0.000  -0.001  -0.004   0.001  -0.000   0.248  -0.000  -0.000  -0.008
  0.003  -0.001   0.025   0.002   0.001  -0.002   0.001  -0.025  -0.002  -0.001  -0.019   0.006  -0.000   0.239  -0.001   0.000
  0.000   0.001  -0.003   0.006   0.002  -0.002  -0.001   0.002  -0.011  -0.003  -0.001   0.000  -0.000  -0.001   0.247   0.000
 -0.000  -0.002  -0.000  -0.000  -0.000   0.000   0.001  -0.000   0.000   0.000   0.000  -0.000  -0.008   0.000   0.000   0.000
 -0.000   0.000  -0.003   0.000  -0.000   0.000  -0.000   0.001   0.000   0.000   0.001  -0.000   0.000  -0.008   0.000   0.000
 -0.000  -0.000   0.000  -0.002  -0.000   0.000   0.000  -0.000   0.001   0.000   0.000  -0.000   0.000   0.000  -0.008  -0.000


------------------------ aborting loop because EDIFF is reached ----------------------------------------



 DIPCOR: dipole corrections for dipol
 direction  3 min pos    20,
 dipolmoment           0.000000      0.000000     -0.038228 electrons x Angstroem
 Tr[quadrupol]      -948.151509

 energy correction for charged system         0.000000 eV
 dipol+quadrupol energy correction            0.000160 eV
 added-field ion interaction          0.000000 eV  (added to PSCEN)

 
  *************** adding dipol energy to TOTEN NOW **************** 
    CHARGE:  cpu time    0.7336: real time    0.7357
    FORLOC:  cpu time    0.0069: real time    0.0069
    FORNL :  cpu time    3.1187: real time    3.1283
    STRESS:  cpu time    9.3700: real time    9.4063
    FORCOR:  cpu time    0.0291: real time    0.0292
    FORHAR:  cpu time    0.0119: real time    0.0124
    MIXING:  cpu time    0.0038: real time    0.0038
    OFIELD:  cpu time    0.0000: real time    0.0001

  FORCE on cell =-STRESS in cart. coord.  units (eV):
  Direction    XX          YY          ZZ          XY          YZ          ZX
  --------------------------------------------------------------------------------------
  Alpha Z   324.87462   324.87462   324.87462
  Ewald  107595.04867107603.60706************    -2.08394    -3.25588    -2.20087
  Hartree110045.44299110048.32739************    -0.46844    -0.75181    -0.61605
  E(xc)    -736.90711  -736.85348  -741.61561    -0.02006    -0.01368     0.00015
  Local  ************************222794.22729     2.00905     3.30201     2.58876
  n-local    42.88016    43.23830    24.82540    -0.12271    -0.34296    -0.28107
  augment   834.61373   834.10216   863.14138     0.20562     0.33652     0.14291
  Kinetic  2383.01243  2381.85365  2456.20850     0.47624     0.59268     0.23702
  Fock        0.00000     0.00000     0.00000     0.00000     0.00000     0.00000
  -------------------------------------------------------------------------------------
  Total     -12.16888   -12.08277    -0.93504    -0.00422    -0.13312    -0.12915
  in kB     -23.65738   -23.48997    -1.81779    -0.00821    -0.25880    -0.25108
  external pressure =      -16.32 kB  Pullay stress =        0.00 kB


 VOLUME and BASIS-vectors are now :
 -----------------------------------------------------------------------------
  energy-cutoff  :      350.00
  volume of cell :      824.13
      direct lattice vectors                 reciprocal lattice vectors
     5.557859300  0.000000000  0.000000000     0.179925390 -0.103879972  0.000000000
     2.778929650  4.813247345  0.000000000     0.000000000  0.207759944  0.000000000
     0.000000000  0.000000000 30.806959674     0.000000000  0.000000000  0.032460198

  length of vectors
     5.557859300  5.557859300 30.806959674     0.207759944  0.207759944  0.032460198


 FORCES acting on ions
    electron-ion (+dipol)            ewald-force                    non-local-force                 convergence-correction
 -----------------------------------------------------------------------------------------------
   -.160E+01 0.538E+00 -.837E+03   0.160E+01 -.544E+00 0.837E+03   0.219E-01 -.780E-02 0.288E+00   -.213E-03 0.265E-03 0.650E-02
   0.776E-01 -.581E-01 -.116E+04   -.797E-01 0.692E-01 0.116E+04   0.281E-01 0.112E-03 0.210E-01   -.104E-04 -.134E-04 -.188E-02
   -.196E+02 -.307E+02 -.275E+03   0.217E+02 0.340E+02 0.272E+03   -.214E+01 -.335E+01 0.362E+01   0.168E-04 0.101E-04 -.826E-03
   0.348E+02 -.237E+02 -.300E+03   -.387E+02 0.263E+02 0.303E+03   0.384E+01 -.262E+01 -.279E+01   -.343E-04 0.168E-04 -.807E-04
   0.198E+02 0.386E+02 -.280E+03   -.220E+02 -.429E+02 0.277E+03   0.218E+01 0.426E+01 0.255E+01   -.226E-04 -.269E-04 -.723E-03
   -.352E+02 0.156E+02 -.302E+03   0.390E+02 -.173E+02 0.306E+03   -.387E+01 0.172E+01 -.337E+01   0.270E-04 -.138E-04 -.573E-05
   -.292E+00 -.125E+00 0.264E+04   0.268E+00 0.962E-01 -.264E+04   -.202E-02 0.125E-01 -.197E+00   0.182E-04 -.416E-04 0.854E-03
   -.979E-02 0.430E+01 -.264E+04   0.230E-01 -.451E+01 0.264E+04   0.188E-01 0.803E-01 0.106E+01   0.105E-03 0.217E-03 -.113E-02
   0.138E+00 -.170E+01 -.263E+04   -.134E+00 0.170E+01 0.263E+04   -.371E-01 -.373E-02 0.891E+00   -.114E-03 0.274E-03 -.114E-02
   -.506E+01 -.106E+01 -.264E+04   0.524E+01 0.119E+01 0.264E+04   -.702E-01 -.865E-01 0.106E+01   0.351E-04 -.311E-03 -.118E-02
   0.531E+01 -.926E+00 -.262E+04   -.549E+01 0.106E+01 0.262E+04   0.552E-01 -.626E-01 0.126E+01   -.373E-04 -.193E-03 -.146E-02
   0.183E+00 -.318E+00 0.294E+04   -.166E+00 0.243E+00 -.294E+04   0.145E-01 0.873E-01 -.752E+00   -.206E-04 -.180E-03 0.398E-03
   0.237E+00 -.114E+01 -.762E+03   -.207E+00 0.116E+01 0.761E+03   -.648E-01 -.295E-01 0.476E+00   0.500E-03 -.594E-04 0.576E-02
   -.481E+01 -.269E+01 0.113E+04   0.498E+01 0.279E+01 -.113E+04   -.226E-01 0.112E-01 -.289E+00   0.311E-03 -.157E-02 0.635E-02
   0.479E+01 0.224E+01 0.113E+04   -.495E+01 -.235E+01 -.113E+04   0.311E-02 0.295E-01 -.315E+00   -.310E-03 0.407E-03 0.476E-02
   0.429E+01 0.295E+01 0.113E+04   -.447E+01 -.305E+01 -.113E+04   0.321E-01 0.326E-02 -.322E+00   0.171E-02 0.407E-03 0.608E-02
   -.436E+01 -.261E+01 0.113E+04   0.454E+01 0.271E+01 -.113E+04   -.170E-01 -.315E-01 -.264E+00   -.170E-02 0.765E-03 0.585E-02
   -.259E+00 0.873E-01 0.294E+04   0.220E+00 -.574E-01 -.294E+04   0.705E-01 -.256E-02 -.759E+00   -.118E-03 0.106E-03 0.497E-03
   0.888E-01 -.203E+00 0.294E+04   -.680E-01 0.207E+00 -.294E+04   -.443E-01 -.574E-02 -.645E+00   0.115E-03 0.124E-03 0.384E-03
   -.250E+00 0.508E+00 -.762E+03   0.217E+00 -.465E+00 0.762E+03   0.563E-01 -.578E-01 0.400E+00   -.507E-03 0.163E-03 0.589E-02
   0.160E+01 0.246E+00 -.761E+03   -.159E+01 -.291E+00 0.761E+03   -.442E-01 0.628E-01 0.410E+00   0.185E-03 -.348E-03 0.618E-02
 -----------------------------------------------------------------------------------------------
   -.152E-01 -.450E-02 -.242E+01   0.244E-14 0.500E-14 0.227E-12   0.579E-02 0.138E-01 0.234E+01   -.619E-04 -.195E-05 0.411E-01
 
 
 POSITION                                       TOTAL-FORCE (eV/Angst)
 -----------------------------------------------------------------------------------
      4.18055      4.03317     16.61644         0.024862     -0.013972      0.188400
      5.57154      0.12125     22.66560         0.026469      0.010794      0.024375
      6.00961      0.80680     21.92257        -0.002657     -0.020627      0.031722
      4.79198      0.65115     23.23192         0.000342     -0.014952     -0.000955
      2.35072      4.07031     22.14848        -0.017959      0.000759      0.007401
      3.57960      4.58485     23.35005        -0.006277      0.017634     -0.005619
      2.77893      0.00000     12.00000        -0.025457     -0.016675      1.143093
      4.18714      2.43784     18.94362         0.032562     -0.128028      0.169908
      1.40984      2.43737     18.94422        -0.032876      0.004636     -0.047066
      2.79820      0.03292     18.94454         0.110677      0.043436      0.149021
      0.02018      0.03315     18.93962        -0.121111      0.076035      0.191738
      0.00000      0.00000     12.00000         0.032267      0.011790     -0.072537
      5.57104      1.62610     16.61676        -0.033638     -0.003885     -0.184908
      5.56409      3.21942     14.32281         0.151802      0.112529     -0.452712
      2.78520      3.21797     14.32142        -0.159419     -0.074142     -0.114306
      4.17392      0.81312     14.32129        -0.138890     -0.099612     -0.243485
      1.39575      0.81301     14.32160         0.161558      0.067776     -0.459924
      4.16839      2.40662     12.00000         0.031799      0.027027     -0.073725
      1.38946      2.40662     12.00000        -0.022966     -0.002307     -0.361038
      2.79162      1.62599     16.61742         0.022891     -0.015068      0.054256
      6.96197      4.03320     16.61602        -0.033979      0.016850      0.056361
 -----------------------------------------------------------------------------------
    total drift:                               -0.009513      0.009303     -0.043149


--------------------------------------------------------------------------------------------------------



  FREE ENERGIE OF THE ION-ELECTRON SYSTEM (eV)
  ---------------------------------------------------
  free  energy   TOTEN  =      -115.76970179 eV

  energy  without entropy=     -115.75609352  energy(sigma->0) =     -115.76516570
 


--------------------------------------------------------------------------------------------------------


    POTLOK:  cpu time    0.0267: real time    0.0268


--------------------------------------------------------------------------------------------------------


     LOOP+:  cpu time  541.4873: real time  543.0169
    4ORBIT:  cpu time    0.0000: real time    0.0000

 total amount of memory used by VASP MPI-rank0   164306. kBytes
=======================================================================

   base      :      30000. kBytes
   nonlr-proj:       2353. kBytes
   fftplans  :       2967. kBytes
   grid      :       6321. kBytes
   one-center:         93. kBytes
   wavefun   :     122572. kBytes
 
  
  
 General timing and accounting informations for this job:
 ========================================================
  
                  Total CPU time used (sec):      549.334
                            User time (sec):      547.592
                          System time (sec):        1.742
                         Elapsed time (sec):      551.393
  
                   Maximum memory used (kb):      208748.
                   Average memory used (kb):           0.
  
                          Minor page faults:        72332
                          Major page faults:           42
                 Voluntary context switches:         1323
