       N       E                     dE             d eps       ncg     rms          rms(c)
DAV:   1     0.102498541971E+04    0.10250E+04   -0.58276E+04 19288   0.103E+03
DAV:   2    -0.286521085238E+02   -0.10536E+04   -0.97813E+03 23864   0.259E+02
DAV:   3    -0.120841767692E+03   -0.92190E+02   -0.85148E+02 22936   0.759E+01
DAV:   4    -0.125312194635E+03   -0.44704E+01   -0.42599E+01 25760   0.169E+01
DAV:   5    -0.125453051318E+03   -0.14086E+00   -0.13938E+00 26580   0.295E+00    0.429E+01
DAV:   6    -0.119959123518E+03    0.54939E+01   -0.33681E+01 22772   0.236E+01    0.352E+01
DAV:   7    -0.172019939587E+03   -0.52061E+02   -0.23099E+02 29012   0.810E+01    0.583E+01
DAV:   8    -0.145506010965E+03    0.26514E+02   -0.98597E+01 27604   0.441E+01    0.452E+01
DAV:   9    -0.135902615794E+03    0.96034E+01   -0.59820E+01 33204   0.468E+01    0.328E+01
DAV:  10    -0.119215505498E+03    0.16687E+02   -0.45478E+01 27200   0.368E+01    0.188E+01
DAV:  11    -0.117435000631E+03    0.17805E+01   -0.24910E+01 28040   0.189E+01    0.150E+01
DAV:  12    -0.116000322339E+03    0.14347E+01   -0.96037E+00 26880   0.116E+01    0.662E+00
DAV:  13    -0.115762094429E+03    0.23823E+00   -0.63463E-01 27748   0.374E+00    0.492E+00
DAV:  14    -0.115692993212E+03    0.69101E-01   -0.99748E-02 23352   0.151E+00    0.448E+00
DAV:  15    -0.115652471453E+03    0.40522E-01   -0.11212E-01 26332   0.140E+00    0.343E+00
DAV:  16    -0.115644856626E+03    0.76148E-02   -0.22120E-01 20380   0.226E+00    0.166E+00
DAV:  17    -0.115612703820E+03    0.32153E-01   -0.86300E-02 21292   0.139E+00    0.924E-01
DAV:  18    -0.115605521854E+03    0.71820E-02   -0.24786E-02 24704   0.679E-01    0.631E-01
DAV:  19    -0.115602003628E+03    0.35182E-02   -0.92701E-03 22064   0.407E-01    0.501E-01
DAV:  20    -0.115598743471E+03    0.32602E-02   -0.65396E-03 23176   0.352E-01    0.280E-01
DAV:  21    -0.115598217343E+03    0.52613E-03   -0.22384E-03 21776   0.227E-01    0.217E-01
DAV:  22    -0.115598071736E+03    0.14561E-03   -0.16094E-03 21512   0.180E-01    0.273E-01
DAV:  23    -0.115597292924E+03    0.77881E-03   -0.24641E-03 25192   0.213E-01    0.644E-02
DAV:  24    -0.115597315146E+03   -0.22222E-04   -0.31711E-04 21036   0.700E-02    0.504E-02
DAV:  25    -0.115597325866E+03   -0.10720E-04   -0.10967E-04 19752   0.452E-02    0.278E-02
DAV:  26    -0.115597443217E+03   -0.11735E-03   -0.11997E-04 20452   0.402E-02    0.362E-02
DAV:  27    -0.115597522744E+03   -0.79526E-04   -0.70550E-05 17420   0.366E-02    0.211E-02
DAV:  28    -0.115597617430E+03   -0.94687E-04   -0.26036E-05 13560   0.228E-02    0.166E-02
DAV:  29    -0.115597720044E+03   -0.10261E-03   -0.21516E-05 13472   0.212E-02    0.175E-02
DAV:  30    -0.115597855987E+03   -0.13594E-03   -0.24803E-05 13412   0.210E-02    0.265E-02
DAV:  31    -0.115597920607E+03   -0.64619E-04   -0.96213E-06 11656   0.123E-02    0.142E-02
DAV:  32    -0.115597979609E+03   -0.59003E-04   -0.45193E-06 11888   0.694E-03    0.825E-03
DAV:  33    -0.115598038540E+03   -0.58930E-04   -0.46414E-06 11904   0.800E-03    0.340E-03
DAV:  34    -0.115598058917E+03   -0.20377E-04   -0.15055E-06 11324   0.460E-03    0.588E-03
DAV:  35    -0.115598071216E+03   -0.12299E-04   -0.60765E-07 10632   0.282E-03    0.372E-03
DAV:  36    -0.115598081709E+03   -0.10493E-04   -0.45102E-07 10888   0.215E-03    0.305E-03
DAV:  37    -0.115598090169E+03   -0.84599E-05   -0.27084E-07 10928   0.181E-03
   1 F= -.11559537E+03 E0= -.11559089E+03  d E =-.134456E-01
