       N       E                     dE             d eps       ncg     rms          rms(c)
DAV:   1     0.102880652789E+04    0.10288E+04   -0.58319E+04 19288   0.103E+03
DAV:   2    -0.298758509809E+02   -0.10587E+04   -0.98422E+03 24000   0.259E+02
DAV:   3    -0.121116127559E+03   -0.91240E+02   -0.84393E+02 23032   0.757E+01
DAV:   4    -0.125557460032E+03   -0.44413E+01   -0.42249E+01 25440   0.170E+01
DAV:   5    -0.125699300798E+03   -0.14184E+00   -0.14058E+00 26752   0.298E+00    0.431E+01
DAV:   6    -0.118423730855E+03    0.72756E+01   -0.37133E+01 22496   0.253E+01    0.326E+01
DAV:   7    -0.142730282722E+03   -0.24307E+02   -0.10573E+02 27532   0.579E+01    0.470E+01
DAV:   8    -0.124102284709E+03    0.18628E+02   -0.41904E+01 30340   0.427E+01    0.263E+01
DAV:   9    -0.130048193111E+03   -0.59459E+01   -0.55550E+01 28796   0.472E+01    0.314E+01
DAV:  10    -0.125770754767E+03    0.42774E+01   -0.51493E+01 31920   0.490E+01    0.268E+01
DAV:  11    -0.116753608034E+03    0.90171E+01   -0.21168E+01 27332   0.165E+01    0.116E+01
DAV:  12    -0.116393286842E+03    0.36032E+00   -0.59351E+00 28032   0.120E+01    0.113E+01
DAV:  13    -0.115380610842E+03    0.10127E+01   -0.41852E+00 27520   0.776E+00    0.488E+00
DAV:  14    -0.115297450611E+03    0.83160E-01   -0.11483E+00 23916   0.447E+00    0.326E+00
DAV:  15    -0.115259520804E+03    0.37930E-01   -0.92778E-02 23300   0.135E+00    0.232E+00
DAV:  16    -0.115253529748E+03    0.59911E-02   -0.19336E-01 27032   0.190E+00    0.210E+00
DAV:  17    -0.115233381322E+03    0.20148E-01   -0.20549E-01 24360   0.162E+00    0.102E+00
DAV:  18    -0.115225768845E+03    0.76125E-02   -0.23310E-02 21484   0.636E-01    0.544E-01
DAV:  19    -0.115225861892E+03   -0.93047E-04   -0.40688E-03 22696   0.283E-01    0.488E-01
DAV:  20    -0.115226205271E+03   -0.34338E-03   -0.47802E-03 21592   0.322E-01    0.500E-01
DAV:  21    -0.115224207977E+03    0.19973E-02   -0.31805E-03 25304   0.238E-01    0.320E-01
DAV:  22    -0.115223536697E+03    0.67128E-03   -0.89409E-04 26968   0.112E-01    0.209E-01
DAV:  23    -0.115223361440E+03    0.17526E-03   -0.15717E-04 23256   0.510E-02    0.167E-01
DAV:  24    -0.115223288138E+03    0.73302E-04   -0.70234E-04 25556   0.106E-01    0.762E-02
DAV:  25    -0.115223401897E+03   -0.11376E-03   -0.19511E-04 22212   0.574E-02    0.457E-02
DAV:  26    -0.115223530278E+03   -0.12838E-03   -0.92391E-05 15268   0.401E-02    0.490E-02
DAV:  27    -0.115223617324E+03   -0.87046E-04   -0.32381E-05 12312   0.231E-02    0.492E-02
DAV:  28    -0.115223769215E+03   -0.15189E-03   -0.75402E-05 12976   0.339E-02    0.260E-02
DAV:  29    -0.115223873036E+03   -0.10382E-03   -0.20235E-05 12632   0.184E-02    0.247E-02
DAV:  30    -0.115224024645E+03   -0.15161E-03   -0.10993E-05 13084   0.121E-02    0.236E-02
DAV:  31    -0.115224156628E+03   -0.13198E-03   -0.99462E-06 13488   0.125E-02    0.202E-02
DAV:  32    -0.115224187763E+03   -0.31136E-04   -0.29272E-06 12536   0.708E-03    0.163E-02
DAV:  33    -0.115224228518E+03   -0.40755E-04   -0.36187E-06 12280   0.706E-03    0.925E-03
DAV:  34    -0.115224269845E+03   -0.41327E-04   -0.37289E-06 12336   0.695E-03    0.333E-03
DAV:  35    -0.115224290238E+03   -0.20393E-04   -0.15086E-06 12340   0.387E-03    0.501E-03
DAV:  36    -0.115224293002E+03   -0.27636E-05   -0.32819E-07 10736   0.208E-03
   1 F= -.11521408E+03 E0= -.11520417E+03  d E =-.297206E-01
