 vasp.5.4.4.18Apr17-6-g9f103f2a35 (build Apr 28 2017 10:53:45) complex          
  
 executed on             LinuxIFC date 2019.07.18  18:40:17
 running on   16 total cores
 distrk:  each k-point on   16 cores,    1 groups
 distr:  one band on NCORES_PER_BAND=   4 cores,    4 groups


--------------------------------------------------------------------------------------------------------


 INCAR:
 POTCAR:    PAW_PBE Au 04Oct2007                  
 POTCAR:    PAW_PBE C 08Apr2002                   
 POTCAR:    PAW_PBE H 15Jun2001                   
 POTCAR:    PAW_PBE Ir 06Sep2000                  
 POTCAR:    PAW_PBE Pt 04Feb2005                  
 POTCAR:    PAW_PBE Au 04Oct2007                  
   VRHFIN =Au: s1d10                                                            
   LEXCH  = PE                                                                  
   EATOM  =   926.0867 eV,   68.0654 Ry                                         
                                                                                
   TITEL  = PAW_PBE Au 04Oct2007                                                
   LULTRA =        F    use ultrasoft PP ?                                      
   IUNSCR =        1    unscreen: 0-lin 1-nonlin 2-no                           
   RPACOR =    2.330    partial core radius                                     
   POMASS =  196.966; ZVAL   =   11.000    mass and valenz                      
   RCORE  =    2.500    outmost cutoff radius                                   
   RWIGS  =    2.840; RWIGS  =    1.503    wigner-seitz radius (au A)           
   ENMAX  =  229.943; ENMIN  =  172.457 eV                                      
   ICORE  =        3    local potential                                         
   LCOR   =        T    correct aug charges                                     
   LPAW   =        T    paw PP                                                  
   EAUG   =  356.670                                                            
   DEXC   =    0.000                                                            
   RMAX   =    2.562    core radius for proj-oper                               
   RAUG   =    1.300    factor for augmentation sphere                          
   RDEP   =    2.598    radius for radial grids                                 
   RDEPT  =    2.193    core radius for aug-charge                              
                                                                                
   Atomic configuration                                                         
   16 entries                                                                   
     n  l   j            E        occ.                                          
     1  0  0.50    -80748.5001   2.0000                                         
     2  0  0.50    -14244.7466   2.0000                                         
     2  1  1.50    -12310.9591   6.0000                                         
     3  0  0.50     -3362.1768   2.0000                                         
     3  1  1.50     -2801.5463   6.0000                                         
     3  2  2.50     -2203.8206  10.0000                                         
     4  0  0.50      -729.8168   2.0000                                         
     4  1  1.50      -546.0527   6.0000                                         
     4  2  2.50      -325.7302  10.0000                                         
     4  3  3.50       -81.1472  14.0000                                         
     5  0  0.50      -108.3201   2.0000                                         
     5  1  1.50       -59.7479   6.0000                                         
     5  2  2.50        -6.8783  10.0000                                         
     6  0  0.50        -5.7602   1.0000                                         
     6  1  1.50        -6.8029   0.0000                                         
     5  3  2.50        -1.3606   0.0000                                         
   Description                                                                  
     l       E           TYP  RCUT    TYP  RCUT                                 
     2     -6.8782861     23  2.500                                             
     2     -8.2388687     23  2.500                                             
     0     -5.7601759     23  2.500                                             
     0     -0.8493231     23  2.500                                             
     1     -2.7211652     23  2.500                                             
     1     27.2116520     23  2.500                                             
     3     -1.3605826     23  2.500                                             
  local pseudopotential read in
  partial core-charges read in
  partial kinetic energy density read in
  atomic valenz-charges read in
  non local Contribution for L=           2  read in
    real space projection operators read in
  non local Contribution for L=           2  read in
    real space projection operators read in
  non local Contribution for L=           0  read in
    real space projection operators read in
  non local Contribution for L=           0  read in
    real space projection operators read in
  non local Contribution for L=           1  read in
    real space projection operators read in
  non local Contribution for L=           1  read in
    real space projection operators read in
    PAW grid and wavefunctions read in
 
   number of l-projection  operators is LMAX  =           6
   number of lm-projection operators is LMMAX =          18
 
 POTCAR:    PAW_PBE C 08Apr2002                   
   VRHFIN =C: s2p2                                                              
   LEXCH  = PE                                                                  
   EATOM  =   147.1560 eV,   10.8157 Ry                                         
                                                                                
   TITEL  = PAW_PBE C 08Apr2002                                                 
   LULTRA =        F    use ultrasoft PP ?                                      
   IUNSCR =        1    unscreen: 0-lin 1-nonlin 2-no                           
   RPACOR =    1.200    partial core radius                                     
   POMASS =   12.011; ZVAL   =    4.000    mass and valenz                      
   RCORE  =    1.500    outmost cutoff radius                                   
   RWIGS  =    1.630; RWIGS  =    0.863    wigner-seitz radius (au A)           
   ENMAX  =  400.000; ENMIN  =  300.000 eV                                      
   ICORE  =        2    local potential                                         
   LCOR   =        T    correct aug charges                                     
   LPAW   =        T    paw PP                                                  
   EAUG   =  644.873                                                            
   DEXC   =    0.000                                                            
   RMAX   =    1.529    core radius for proj-oper                               
   RAUG   =    1.300    factor for augmentation sphere                          
   RDEP   =    1.501    radius for radial grids                                 
   RDEPT  =    1.300    core radius for aug-charge                              
                                                                                
   Atomic configuration                                                         
    4 entries                                                                   
     n  l   j            E        occ.                                          
     1  0  0.50      -273.3789   2.0000                                         
     2  0  0.50       -13.7508   2.0000                                         
     2  1  0.50        -5.2854   2.0000                                         
     3  2  1.50        -5.4423   0.0000                                         
   Description                                                                  
     l       E           TYP  RCUT    TYP  RCUT                                 
     0    -13.7508458     23  1.200                                             
     0     -8.2022199     23  1.200                                             
     1     -5.2854383     23  1.500                                             
     1     34.0145650     23  1.500                                             
     2     -5.4423304      7  1.500                                             
  local pseudopotential read in
  partial core-charges read in
  partial kinetic energy density read in
  atomic valenz-charges read in
  non local Contribution for L=           0  read in
    real space projection operators read in
  non local Contribution for L=           0  read in
    real space projection operators read in
  non local Contribution for L=           1  read in
    real space projection operators read in
  non local Contribution for L=           1  read in
    real space projection operators read in
    PAW grid and wavefunctions read in
 
   number of l-projection  operators is LMAX  =           4
   number of lm-projection operators is LMMAX =           8
 
 POTCAR:    PAW_PBE H 15Jun2001                   
   VRHFIN =H: ultrasoft test                                                    
   LEXCH  = PE                                                                  
   EATOM  =    12.4884 eV,    0.9179 Ry                                         
                                                                                
   TITEL  = PAW_PBE H 15Jun2001                                                 
   LULTRA =        F    use ultrasoft PP ?                                      
   IUNSCR =        0    unscreen: 0-lin 1-nonlin 2-no                           
   RPACOR =    0.000    partial core radius                                     
   POMASS =    1.000; ZVAL   =    1.000    mass and valenz                      
   RCORE  =    1.100    outmost cutoff radius                                   
   RWIGS  =    0.700; RWIGS  =    0.370    wigner-seitz radius (au A)           
   ENMAX  =  250.000; ENMIN  =  200.000 eV                                      
   RCLOC  =    0.701    cutoff for local pot                                    
   LCOR   =        T    correct aug charges                                     
   LPAW   =        T    paw PP                                                  
   EAUG   =  400.000                                                            
   RMAX   =    1.123    core radius for proj-oper                               
   RAUG   =    1.200    factor for augmentation sphere                          
   RDEP   =    1.112    radius for radial grids                                 
   RDEPT  =    0.926    core radius for aug-charge                              
                                                                                
   Atomic configuration                                                         
    2 entries                                                                   
     n  l   j            E        occ.                                          
     1  0  0.50        -6.4927   1.0000                                         
     2  1  0.50        -3.4015   0.0000                                         
   Description                                                                  
     l       E           TYP  RCUT    TYP  RCUT                                 
     0     -6.4927494     23  1.100                                             
     0      6.8029130     23  1.100                                             
     1     -4.0817478     23  1.100                                             
  local pseudopotential read in
  atomic valenz-charges read in
  non local Contribution for L=           0  read in
    real space projection operators read in
  non local Contribution for L=           0  read in
    real space projection operators read in
  non local Contribution for L=           1  read in
    real space projection operators read in
    PAW grid and wavefunctions read in
 
   number of l-projection  operators is LMAX  =           3
   number of lm-projection operators is LMMAX =           5
 
 POTCAR:    PAW_PBE Ir 06Sep2000                  
   VRHFIN =Ir: s1d8                                                             
   LEXCH  = PE                                                                  
   EATOM  =   560.1833 eV,   41.1723 Ry                                         
                                                                                
   TITEL  = PAW_PBE Ir 06Sep2000                                                
   LULTRA =        F    use ultrasoft PP ?                                      
   IUNSCR =        1    unscreen: 0-lin 1-nonlin 2-no                           
   RPACOR =    2.250    partial core radius                                     
   POMASS =  192.220; ZVAL   =    9.000    mass and valenz                      
   RCORE  =    2.600    outmost cutoff radius                                   
   RWIGS  =    2.690; RWIGS  =    1.423    wigner-seitz radius (au A)           
   ENMAX  =  210.864; ENMIN  =  158.148 eV                                      
   RCLOC  =    1.857    cutoff for local pot                                    
   LCOR   =        T    correct aug charges                                     
   LPAW   =        T    paw PP                                                  
   EAUG   =  318.962                                                            
   DEXC   =    0.000                                                            
   RMAX   =    2.667    core radius for proj-oper                               
   RAUG   =    1.300    factor for augmentation sphere                          
   RDEP   =    2.748    radius for radial grids                                 
   RDEPT  =    2.300    core radius for aug-charge                              
                                                                                
   Atomic configuration                                                         
   16 entries                                                                   
     n  l   j            E        occ.                                          
     1  0  0.50    -76100.0449   2.0000                                         
     2  0  0.50    -13308.1683   2.0000                                         
     2  1  1.50    -11558.0021   6.0000                                         
     3  0  0.50     -3110.7274   2.0000                                         
     3  1  1.50     -2599.2109   6.0000                                         
     3  2  2.50     -2037.1515  10.0000                                         
     4  0  0.50      -661.6001   2.0000                                         
     4  1  1.50      -493.8981   6.0000                                         
     4  2  2.50      -288.1909  10.0000                                         
     4  3  3.50       -59.5718  14.0000                                         
     5  0  0.50       -95.3879   2.0000                                         
     5  1  1.50       -52.2747   6.0000                                         
     5  2  2.50        -5.4180   8.0000                                         
     6  0  0.50        -5.5479   1.0000                                         
     6  1  1.50        -6.8029   0.0000                                         
     5  3  2.50        -1.3606   0.0000                                         
   Description                                                                  
     l       E           TYP  RCUT    TYP  RCUT                                 
     2     -5.4179967     23  2.600                                             
     2     -6.7785793     23  2.600                                             
     0     -5.5478636     23  2.600                                             
     0      2.2542272     23  2.600                                             
     1     -2.7211652     23  2.600                                             
     1     20.4087390     23  2.600                                             
  local pseudopotential read in
  partial core-charges read in
  partial kinetic energy density read in
  atomic valenz-charges read in
  non local Contribution for L=           2  read in
    real space projection operators read in
  non local Contribution for L=           2  read in
    real space projection operators read in
  non local Contribution for L=           0  read in
    real space projection operators read in
  non local Contribution for L=           0  read in
    real space projection operators read in
  non local Contribution for L=           1  read in
    real space projection operators read in
  non local Contribution for L=           1  read in
    real space projection operators read in
    PAW grid and wavefunctions read in
 
   number of l-projection  operators is LMAX  =           6
   number of lm-projection operators is LMMAX =          18
 
 POTCAR:    PAW_PBE Pt 04Feb2005                  
   VRHFIN =Pt: s1d9                                                             
   LEXCH  = PE                                                                  
   EATOM  =   729.1176 eV,   53.5886 Ry                                         
                                                                                
   TITEL  = PAW_PBE Pt 04Feb2005                                                
   LULTRA =        F    use ultrasoft PP ?                                      
   IUNSCR =        1    unscreen: 0-lin 1-nonlin 2-no                           
   RPACOR =    2.330    partial core radius                                     
   POMASS =  195.080; ZVAL   =   10.000    mass and valenz                      
   RCORE  =    2.600    outmost cutoff radius                                   
   RWIGS  =    2.750; RWIGS  =    1.455    wigner-seitz radius (au A)           
   ENMAX  =  230.283; ENMIN  =  172.712 eV                                      
   ICORE  =        3    local potential                                         
   LCOR   =        T    correct aug charges                                     
   LPAW   =        T    paw PP                                                  
   EAUG   =  358.966                                                            
   DEXC   =    0.000                                                            
   RMAX   =    2.658    core radius for proj-oper                               
   RAUG   =    1.300    factor for augmentation sphere                          
   RDEP   =    2.761    radius for radial grids                                 
   RDEPT  =    2.203    core radius for aug-charge                              
                                                                                
   Atomic configuration                                                         
   16 entries                                                                   
     n  l   j            E        occ.                                          
     1  0  0.50    -78401.1885   2.0000                                         
     2  0  0.50    -13770.7750   2.0000                                         
     2  1  1.50    -11931.0468   6.0000                                         
     3  0  0.50     -3234.7234   2.0000                                         
     3  1  1.50     -2699.2216   6.0000                                         
     3  2  2.50     -2119.5714  10.0000                                         
     4  0  0.50      -695.1528   2.0000                                         
     4  1  1.50      -519.6034   6.0000                                         
     4  2  2.50      -306.6786  10.0000                                         
     4  3  3.50       -70.1041  14.0000                                         
     5  0  0.50      -101.7747   2.0000                                         
     5  1  1.50       -55.9873   6.0000                                         
     5  2  2.50        -6.1423   9.0000                                         
     6  0  0.50        -5.6573   1.0000                                         
     6  1  1.50        -6.8029   0.0000                                         
     5  3  2.50        -1.3606   0.0000                                         
   Description                                                                  
     l       E           TYP  RCUT    TYP  RCUT                                 
     2     -6.1423404     23  2.500                                             
     2     -7.5029230     23  2.500                                             
     0     -5.6573207     23  2.500                                             
     0      0.7416693     23  2.500                                             
     1     -2.7211652     23  2.600                                             
     1     20.4087390     23  2.600                                             
     3     -1.3605826     23  2.500                                             
  local pseudopotential read in
  partial core-charges read in
  partial kinetic energy density read in
  atomic valenz-charges read in
  non local Contribution for L=           2  read in
    real space projection operators read in
  non local Contribution for L=           2  read in
    real space projection operators read in
  non local Contribution for L=           0  read in
    real space projection operators read in
  non local Contribution for L=           0  read in
    real space projection operators read in
  non local Contribution for L=           1  read in
    real space projection operators read in
  non local Contribution for L=           1  read in
    real space projection operators read in
    PAW grid and wavefunctions read in
 
   number of l-projection  operators is LMAX  =           6
   number of lm-projection operators is LMMAX =          18
 
 Optimization of the real space projectors (new method)

 maximal supplied QI-value         = 15.12
 optimisation between [QCUT,QGAM] = [  9.52, 19.05] = [ 25.40,101.61] Ry 
 Optimized for a Real-space Cutoff    1.57 Angstroem

   l    n(q)    QCUT    max X(q) W(low)/X(q) W(high)/X(q)  e(spline) 
   2      8     9.524    60.898    0.38E-03    0.43E-04    0.84E-07
   2      8     9.524    58.894    0.38E-03    0.47E-04    0.88E-07
   0      9     9.524   109.617    0.60E-04    0.64E-04    0.80E-07
   0      9     9.524    75.026    0.59E-04    0.62E-04    0.78E-07
   1      8     9.524    16.344    0.99E-04    0.18E-03    0.87E-07
   1      8     9.524    10.160    0.78E-04    0.15E-03    0.74E-07
 Optimization of the real space projectors (new method)

 maximal supplied QI-value         = 25.13
 optimisation between [QCUT,QGAM] = [  9.55, 19.10] = [ 25.54,102.17] Ry 
 Optimized for a Real-space Cutoff    1.39 Angstroem

   l    n(q)    QCUT    max X(q) W(low)/X(q) W(high)/X(q)  e(spline) 
   0      8     9.551   115.676    0.39E-03    0.54E-03    0.29E-06
   0      8     9.551    87.132    0.39E-03    0.54E-03    0.28E-06
   1      7     9.551     4.429    0.35E-03    0.51E-04    0.29E-06
   1      7     9.551     2.733    0.22E-03    0.42E-04    0.31E-06
 Optimization of the real space projectors (new method)

 maximal supplied QI-value         = 34.20
 optimisation between [QCUT,QGAM] = [  9.58, 19.15] = [ 25.68,102.74] Ry 
 Optimized for a Real-space Cutoff    1.31 Angstroem

   l    n(q)    QCUT    max X(q) W(low)/X(q) W(high)/X(q)  e(spline) 
   0      7     9.577    19.460    0.33E-03    0.12E-03    0.35E-06
   0      7     9.577    12.209    0.33E-03    0.11E-03    0.33E-06
   1      7     9.577     4.655    0.39E-03    0.14E-02    0.33E-06
 Optimization of the real space projectors (new method)

 maximal supplied QI-value         = 14.36
 optimisation between [QCUT,QGAM] = [  9.48, 19.10] = [ 25.16,102.17] Ry 
 Optimized for a Real-space Cutoff    1.57 Angstroem

   l    n(q)    QCUT    max X(q) W(low)/X(q) W(high)/X(q)  e(spline) 
   2      8     9.479   134.116    0.18E-03    0.75E-03    0.26E-06
   2      8     9.479   130.192    0.18E-03    0.75E-03    0.27E-06
   0      9     9.479    60.310    0.39E-03    0.24E-03    0.63E-07
   0      9     9.479    39.218    0.36E-03    0.22E-03    0.59E-07
   1      8     9.479    18.439    0.20E-03    0.15E-03    0.16E-06
   1      8     9.479    12.760    0.16E-03    0.11E-03    0.13E-06
 Optimization of the real space projectors (new method)

 maximal supplied QI-value         = 14.36
 optimisation between [QCUT,QGAM] = [  9.48, 19.10] = [ 25.16,102.17] Ry 
 Optimized for a Real-space Cutoff    1.57 Angstroem

   l    n(q)    QCUT    max X(q) W(low)/X(q) W(high)/X(q)  e(spline) 
   2      8     9.479    66.195    0.35E-03    0.53E-04    0.87E-07
   2      8     9.479    64.643    0.35E-03    0.57E-04    0.91E-07
   0      9     9.479    95.520    0.50E-04    0.62E-04    0.81E-07
   0      9     9.479    63.403    0.49E-04    0.60E-04    0.78E-07
   1      8     9.479    19.961    0.10E-03    0.87E-04    0.11E-06
   1      8     9.479    13.289    0.88E-04    0.71E-04    0.97E-07
  PAW_PBE Au 04Oct2007                  :
 energy of atom  1       EATOM= -926.0867
 kinetic energy error for atom=    0.0152 (will be added to EATOM!!)
  PAW_PBE C 08Apr2002                   :
 energy of atom  2       EATOM= -147.1560
 kinetic energy error for atom=    0.0854 (will be added to EATOM!!)
  PAW_PBE H 15Jun2001                   :
 energy of atom  3       EATOM=  -12.4884
 kinetic energy error for atom=    0.0203 (will be added to EATOM!!)
  PAW_PBE Ir 06Sep2000                  :
 energy of atom  4       EATOM= -560.1833
 kinetic energy error for atom=    0.0056 (will be added to EATOM!!)
  PAW_PBE Pt 04Feb2005                  :
 energy of atom  5       EATOM= -729.1176
 kinetic energy error for atom=    0.0144 (will be added to EATOM!!)
 
 
 POSCAR: Au  C  H Ir Pt                          
  positions in cartesian coordinates
  No initial velocities read in
 exchange correlation table for  LEXCH =        8
   RHO(1)=    0.500       N(1)  =     2000
   RHO(2)=  100.500       N(2)  =     4000
 


--------------------------------------------------------------------------------------------------------


 ion  position               nearest neighbor table
   1  0.847  0.823  0.541-  15 2.75  13 2.76  10 2.77   8 2.77  11 2.77  11 2.78  10 2.79  13 2.80
                             9 2.85  20 2.86  16 2.88  14 3.00
   2  0.011  0.981  0.690-   3 1.10   4 1.10   5 1.10  14 2.07
   3  0.994  0.174  0.702-   2 1.10
   4  0.830  0.965  0.700-   2 1.10
   5  0.204  0.800  0.701-   2 1.10
   6  0.034  0.491  0.668-  16 1.55
   7  0.498  0.000  0.389-  21 2.76  19 2.76  18 2.78  18 2.78  19 2.79  21 2.80  20 2.82   9 2.83
                            12 2.84
   8  0.172  0.662  0.466-   1 2.77  20 2.78  12 2.78   9 2.78  12 2.78   9 2.78  20 2.78  11 2.80
                            13 2.81  18 2.84  19 2.85  21 2.86
   9  0.672  0.662  0.465-  12 2.78  20 2.78   8 2.78  20 2.78   8 2.78  12 2.78  19 2.81  18 2.82
                             7 2.83  13 2.84   1 2.85  10 2.86
  10  0.848  0.321  0.541-  17 2.75  13 2.76   1 2.77  11 2.77  12 2.78  11 2.79   1 2.79  13 2.80
                            20 2.85   9 2.86  16 2.87  14 3.00
  11  0.345  0.323  0.540-  10 2.77   1 2.77  13 2.78  13 2.78   1 2.78  10 2.79  12 2.79   8 2.80
                            17 2.80  15 2.80  20 2.81  16 2.86
  12  0.171  0.162  0.466-  10 2.78  20 2.78   8 2.78   9 2.78   8 2.78   9 2.78  20 2.78  11 2.79
                            13 2.82   7 2.84  21 2.85  19 2.86
  13  0.342  0.825  0.541-  10 2.76   1 2.76  11 2.78  11 2.78  15 2.78  17 2.78   1 2.80  10 2.80
                             8 2.81  12 2.82   9 2.84  14 2.96
  14  0.019  0.986  0.623-   2 2.07  17 2.78  16 2.78  16 2.78  15 2.79  15 2.80  17 2.80  13 2.96
                            10 3.00   1 3.00
  15  0.521  0.985  0.614-   1 2.75  16 2.78  17 2.78  17 2.78  13 2.78  16 2.79  14 2.79  14 2.80
                            11 2.80
  16  0.020  0.486  0.618-   6 1.55  17 2.78  15 2.78  14 2.78  14 2.78  15 2.79  17 2.79  11 2.86
                            10 2.87   1 2.88
  17  0.522  0.485  0.614-  10 2.75  16 2.78  15 2.78  15 2.78  14 2.78  13 2.78  16 2.79  11 2.80
                            14 2.80
  18  0.498  0.500  0.390-  21 2.76  19 2.76   7 2.78   7 2.78  19 2.79  21 2.79   9 2.82  20 2.83
                             8 2.84
  19  0.002  0.499  0.390-   7 2.76  18 2.76  21 2.78  21 2.78  18 2.79   7 2.79   9 2.81   8 2.85
                            12 2.86
  20  0.672  0.161  0.464-  12 2.78   8 2.78   9 2.78   9 2.78   8 2.78  12 2.78  21 2.80  11 2.81
                             7 2.82  18 2.83  10 2.85   1 2.86
  21  0.002  0.999  0.390-   7 2.76  18 2.76  19 2.78  19 2.78  18 2.79   7 2.80  20 2.80  12 2.85
                             8 2.86
 
  LATTYP: Found a hexagonal cell.
 ALAT       =     5.5578593001
 C/A-ratio  =     5.5429542221
  
  Lattice vectors:
  
 A1 = (   2.7789296501,  -4.8132473446,   0.0000000000)
 A2 = (  -5.5578593001,   0.0000000000,   0.0000000000)
 A3 = (   0.0000000000,   0.0000000000, -30.8069596737)


Analysis of symmetry for initial positions (statically):
=====================================================================
 Subroutine PRICEL returns:
 Original cell was already a primitive cell.
 

 Routine SETGRP: Setting up the symmetry group for a 
 hexagonal supercell.


 Subroutine GETGRP returns: Found  1 space group operations
 (whereof  1 operations were pure point group operations)
 out of a pool of 24 trial point group operations.


The static configuration has the point symmetry C_1 .


Analysis of symmetry for dynamics (positions and initial velocities):
=====================================================================
 Subroutine PRICEL returns:
 Original cell was already a primitive cell.
 

 Routine SETGRP: Setting up the symmetry group for a 
 hexagonal supercell.


 Subroutine GETGRP returns: Found  1 space group operations
 (whereof  1 operations were pure point group operations)
 out of a pool of 24 trial point group operations.


The dynamic configuration has the point symmetry C_1 .


 Subroutine INISYM returns: Found  1 space group operations
 (whereof  1 operations are pure point group operations),
 and found     1 'primitive' translations

 
 
 KPOINTS: 0.5.Ir1.Au10                            

Automatic generation of k-mesh.
Space group operators:
 irot       det(A)        alpha          n_x          n_y          n_z        tau_x        tau_y        tau_z
    1     1.000000     0.000001     1.000000     0.000000     0.000000     0.000000     0.000000     0.000000
 
 Subroutine IBZKPT returns following result:
 ===========================================
 
 Found     96 irreducible k-points:
 
 Following reciprocal coordinates:
            Coordinates               Weight
  0.062500  0.062500  0.000000     16.000000
  0.000000  0.062500  0.000000     16.000000
 -0.062500  0.000000  0.000000     16.000000
  0.187500  0.062500  0.000000     16.000000
  0.125000  0.187500  0.000000     16.000000
 -0.062500  0.125000  0.000000     16.000000
  0.125000 -0.062500  0.000000     16.000000
 -0.062500 -0.187500  0.000000     16.000000
 -0.187500 -0.125000  0.000000     16.000000
  0.312500  0.062500  0.000000     16.000000
  0.250000  0.312500  0.000000     16.000000
 -0.062500  0.250000  0.000000     16.000000
  0.250000 -0.062500  0.000000     16.000000
 -0.062500 -0.312500  0.000000     16.000000
 -0.312500 -0.250000  0.000000     16.000000
  0.437500  0.062500  0.000000     16.000000
  0.375000  0.437500  0.000000     16.000000
 -0.062500  0.375000  0.000000     16.000000
  0.375000 -0.062500  0.000000     16.000000
 -0.062500 -0.437500  0.000000     16.000000
 -0.437500 -0.375000  0.000000     16.000000
 -0.437500  0.062500  0.000000     16.000000
  0.500000 -0.437500  0.000000     16.000000
 -0.062500  0.500000  0.000000     16.000000
  0.500000 -0.062500  0.000000     16.000000
 -0.062500  0.437500  0.000000     16.000000
  0.437500  0.500000  0.000000     16.000000
 -0.312500  0.062500  0.000000     16.000000
 -0.375000 -0.312500  0.000000     16.000000
 -0.062500 -0.375000  0.000000     16.000000
 -0.375000 -0.062500  0.000000     16.000000
 -0.062500  0.312500  0.000000     16.000000
  0.312500  0.375000  0.000000     16.000000
 -0.187500  0.062500  0.000000     16.000000
 -0.250000 -0.187500  0.000000     16.000000
 -0.062500 -0.250000  0.000000     16.000000
 -0.250000 -0.062500  0.000000     16.000000
 -0.062500  0.187500  0.000000     16.000000
  0.187500  0.250000  0.000000     16.000000
 -0.062500  0.062500  0.000000     16.000000
 -0.125000 -0.062500  0.000000     16.000000
 -0.062500 -0.125000  0.000000     16.000000
  0.187500  0.187500  0.000000     16.000000
  0.000000  0.187500  0.000000     16.000000
 -0.187500  0.000000  0.000000     16.000000
  0.312500  0.187500  0.000000     16.000000
  0.125000  0.312500  0.000000     16.000000
 -0.187500  0.125000  0.000000     16.000000
  0.125000 -0.187500  0.000000     16.000000
 -0.187500 -0.312500  0.000000     16.000000
 -0.312500 -0.125000  0.000000     16.000000
  0.437500  0.187500  0.000000     16.000000
  0.250000  0.437500  0.000000     16.000000
 -0.187500  0.250000  0.000000     16.000000
  0.250000 -0.187500  0.000000     16.000000
 -0.187500 -0.437500  0.000000     16.000000
 -0.437500 -0.250000  0.000000     16.000000
 -0.437500  0.187500  0.000000     16.000000
  0.375000 -0.437500  0.000000     16.000000
 -0.187500  0.375000  0.000000     16.000000
  0.375000 -0.187500  0.000000     16.000000
 -0.187500  0.437500  0.000000     16.000000
  0.437500 -0.375000  0.000000     16.000000
 -0.312500  0.187500  0.000000     16.000000
  0.500000 -0.312500  0.000000     16.000000
 -0.187500  0.500000  0.000000     16.000000
  0.500000 -0.187500  0.000000     16.000000
 -0.187500  0.312500  0.000000     16.000000
  0.312500  0.500000  0.000000     16.000000
 -0.187500  0.187500  0.000000     16.000000
 -0.375000 -0.187500  0.000000     16.000000
 -0.187500 -0.375000  0.000000     16.000000
  0.312500  0.312500  0.000000     16.000000
  0.000000  0.312500  0.000000     16.000000
 -0.312500  0.000000  0.000000     16.000000
  0.437500  0.312500  0.000000     16.000000
  0.125000  0.437500  0.000000     16.000000
 -0.312500  0.125000  0.000000     16.000000
  0.125000 -0.312500  0.000000     16.000000
 -0.312500 -0.437500  0.000000     16.000000
 -0.437500 -0.125000  0.000000     16.000000
 -0.437500  0.312500  0.000000     16.000000
  0.250000 -0.437500  0.000000     16.000000
 -0.312500  0.250000  0.000000     16.000000
  0.250000 -0.312500  0.000000     16.000000
 -0.312500  0.437500  0.000000     16.000000
  0.437500 -0.250000  0.000000     16.000000
 -0.312500  0.312500  0.000000     16.000000
  0.375000 -0.312500  0.000000     16.000000
 -0.312500  0.375000  0.000000     16.000000
  0.437500  0.437500  0.000000     16.000000
  0.000000  0.437500  0.000000     16.000000
 -0.437500 -0.000000  0.000000     16.000000
 -0.437500  0.437500  0.000000     16.000000
  0.125000 -0.437500  0.000000     16.000000
 -0.437500  0.125000  0.000000     16.000000
 
 Following cartesian coordinates:
            Coordinates               Weight
  0.011245  0.006492  0.000000     16.000000
  0.000000  0.012985  0.000000     16.000000
 -0.011245  0.006492  0.000000     16.000000
  0.033736 -0.006492  0.000000     16.000000
  0.022491  0.025970  0.000000     16.000000
 -0.011245  0.032462  0.000000     16.000000
  0.022491 -0.025970  0.000000     16.000000
 -0.011245 -0.032462  0.000000     16.000000
 -0.033736 -0.006492  0.000000     16.000000
  0.056227 -0.019477  0.000000     16.000000
  0.044981  0.038955  0.000000     16.000000
 -0.011245  0.058432  0.000000     16.000000
  0.044981 -0.038955  0.000000     16.000000
 -0.011245 -0.058432  0.000000     16.000000
 -0.056227 -0.019477  0.000000     16.000000
  0.078717 -0.032462  0.000000     16.000000
  0.067472  0.051940  0.000000     16.000000
 -0.011245  0.084402  0.000000     16.000000
  0.067472 -0.051940  0.000000     16.000000
 -0.011245 -0.084402  0.000000     16.000000
 -0.078717 -0.032462  0.000000     16.000000
 -0.078717  0.058432  0.000000     16.000000
  0.089963 -0.142835  0.000000     16.000000
 -0.011245  0.110372  0.000000     16.000000
  0.089963 -0.064925  0.000000     16.000000
 -0.011245  0.097387  0.000000     16.000000
  0.078717  0.058432  0.000000     16.000000
 -0.056227  0.045447  0.000000     16.000000
 -0.067472 -0.025970  0.000000     16.000000
 -0.011245 -0.071417  0.000000     16.000000
 -0.067472  0.025970  0.000000     16.000000
 -0.011245  0.071417  0.000000     16.000000
  0.056227  0.045447  0.000000     16.000000
 -0.033736  0.032462  0.000000     16.000000
 -0.044981 -0.012985  0.000000     16.000000
 -0.011245 -0.045447  0.000000     16.000000
 -0.044981  0.012985  0.000000     16.000000
 -0.011245  0.045447  0.000000     16.000000
  0.033736  0.032462  0.000000     16.000000
 -0.011245  0.019477  0.000000     16.000000
 -0.022491  0.000000  0.000000     16.000000
 -0.011245 -0.019477  0.000000     16.000000
  0.033736  0.019477  0.000000     16.000000
  0.000000  0.038955  0.000000     16.000000
 -0.033736  0.019477  0.000000     16.000000
  0.056227  0.006492  0.000000     16.000000
  0.022491  0.051940  0.000000     16.000000
 -0.033736  0.045447  0.000000     16.000000
  0.022491 -0.051940  0.000000     16.000000
 -0.033736 -0.045447  0.000000     16.000000
 -0.056227  0.006492  0.000000     16.000000
  0.078717 -0.006492  0.000000     16.000000
  0.044981  0.064925  0.000000     16.000000
 -0.033736  0.071417  0.000000     16.000000
  0.044981 -0.064925  0.000000     16.000000
 -0.033736 -0.071417  0.000000     16.000000
 -0.078717 -0.006492  0.000000     16.000000
 -0.078717  0.084402  0.000000     16.000000
  0.067472 -0.129850  0.000000     16.000000
 -0.033736  0.097387  0.000000     16.000000
  0.067472 -0.077910  0.000000     16.000000
 -0.033736  0.110372  0.000000     16.000000
  0.078717 -0.123357  0.000000     16.000000
 -0.056227  0.071417  0.000000     16.000000
  0.089963 -0.116865  0.000000     16.000000
 -0.033736  0.123357  0.000000     16.000000
  0.089963 -0.090895  0.000000     16.000000
 -0.033736  0.084402  0.000000     16.000000
  0.056227  0.071417  0.000000     16.000000
 -0.033736  0.058432  0.000000     16.000000
 -0.067472  0.000000  0.000000     16.000000
 -0.033736 -0.058432  0.000000     16.000000
  0.056227  0.032462  0.000000     16.000000
  0.000000  0.064925  0.000000     16.000000
 -0.056227  0.032462  0.000000     16.000000
  0.078717  0.019477  0.000000     16.000000
  0.022491  0.077910  0.000000     16.000000
 -0.056227  0.058432  0.000000     16.000000
  0.022491 -0.077910  0.000000     16.000000
 -0.056227 -0.058432  0.000000     16.000000
 -0.078717  0.019477  0.000000     16.000000
 -0.078717  0.110372  0.000000     16.000000
  0.044981 -0.116865  0.000000     16.000000
 -0.056227  0.084402  0.000000     16.000000
  0.044981 -0.090895  0.000000     16.000000
 -0.056227  0.123357  0.000000     16.000000
  0.078717 -0.097387  0.000000     16.000000
 -0.056227  0.097387  0.000000     16.000000
  0.067472 -0.103880  0.000000     16.000000
 -0.056227  0.110372  0.000000     16.000000
  0.078717  0.045447  0.000000     16.000000
  0.000000  0.090895  0.000000     16.000000
 -0.078717  0.045447  0.000000     16.000000
 -0.078717  0.136342  0.000000     16.000000
  0.022491 -0.103880  0.000000     16.000000
 -0.078717  0.071417  0.000000     16.000000
 


--------------------------------------------------------------------------------------------------------




 Dimension of arrays:
   k-points           NKPTS =     96   k-points in BZ     NKDIM =     96   number of bands    NBANDS=    100
   number of dos      NEDOS =    301   number of ions     NIONS =     21
   non local maximal  LDIM  =      6   non local SUM 2l+1 LMDIM =     18
   total plane-waves  NPLWV = 112896
   max r-space proj   IRMAX =   2252   max aug-charges    IRDMAX=  10104
   dimension x,y,z NGX =    28 NGY =   28 NGZ =  144
   dimension x,y,z NGXF=    56 NGYF=   56 NGZF=  288
   support grid    NGXF=    56 NGYF=   56 NGZF=  288
   ions per type =               1   1   4   1  14
   NGX,Y,Z   is equivalent  to a cutoff of   8.38,  8.38,  7.77 a.u.
   NGXF,Y,Z  is equivalent  to a cutoff of  16.75, 16.75, 15.54 a.u.

 SYSTEM =  0.5.Ir1.Au10                            
 POSCAR =  Au  C  H Ir Pt                          

 Startparameter for this run:
   NWRITE =      2    write-flag & timer
   PREC   = normal    normal or accurate (medium, high low for compatibility)
   ISTART =      0    job   : 0-new  1-cont  2-samecut
   ICHARG =      2    charge: 1-file 2-atom 10-const
   ISPIN  =      1    spin polarized calculation?
   LNONCOLLINEAR =      F non collinear calculations
   LSORBIT =      F    spin-orbit coupling
   INIWAV =      1    electr: 0-lowe 1-rand  2-diag
   LASPH  =      F    aspherical Exc in radial PAW
   METAGGA=      F    non-selfconsistent MetaGGA calc.

 Electronic Relaxation 1
   ENCUT  =  350.0 eV  25.72 Ry    5.07 a.u.   8.48  8.48 46.99*2*pi/ulx,y,z
   ENINI  =  350.0     initial cutoff
   ENAUG  =  644.9 eV  augmentation charge cutoff
   NELM   =   1000;   NELMIN=  5; NELMDL= -5     # of ELM steps 
   EDIFF  = 0.1E-04   stopping-criterion for ELM
   LREAL  =      T    real-space projection
   NLSPLINE    = F    spline interpolate recip. space projectors
   LCOMPAT=      F    compatible to vasp.4.4
   GGA_COMPAT  = T    GGA compatible to vasp.4.4-vasp.4.6
   LMAXPAW     = -100 max onsite density
   LMAXMIX     =    2 max onsite mixed and CHGCAR
   VOSKOWN=      0    Vosko Wilk Nusair interpolation
   ROPT   =   -0.00050  -0.00050  -0.00050  -0.00050
   ROPT   =   -0.00050
 Ionic relaxation
   EDIFFG = 0.1E-03   stopping-criterion for IOM
   NSW    =      0    number of steps for IOM
   NBLOCK =      1;   KBLOCK =      1    inner block; outer block 
   IBRION =     -1    ionic relax: 0-MD 1-quasi-New 2-CG
   NFREE  =      0    steps in history (QN), initial steepest desc. (CG)
   ISIF   =      2    stress and relaxation
   IWAVPR =     10    prediction:  0-non 1-charg 2-wave 3-comb
   ISYM   =      2    0-nonsym 1-usesym 2-fastsym
   LCORR  =      T    Harris-Foulkes like correction to forces

   POTIM  = 0.5000    time-step for ionic-motion
   TEIN   =    0.0    initial temperature
   TEBEG  =    0.0;   TEEND  =   0.0 temperature during run
   SMASS  =  -3.00    Nose mass-parameter (am)
   estimated Nose-frequenzy (Omega)   =  0.10E-29 period in steps =****** mass=  -0.706E-27a.u.
   SCALEE = 1.0000    scale energy and forces
   NPACO  =    256;   APACO  = 16.0  distance and # of slots for P.C.
   PSTRESS=    0.0 pullay stress

  Mass of Ions in am
   POMASS = 196.97 12.01  1.00192.22195.08
  Ionic Valenz
   ZVAL   =  11.00  4.00  1.00  9.00 10.00
  Atomic Wigner-Seitz radii
   RWIGS  =  -1.00 -1.00 -1.00 -1.00 -1.00
  virtual crystal weights 
   VCA    =   1.00  1.00  1.00  1.00  1.00
   NELECT =     168.0000    total number of electrons
   NUPDOWN=      -1.0000    fix difference up-down

 DOS related values:
   EMIN   =  10.00;   EMAX   =-10.00  energy-range for DOS
   EFERMI =   0.00
   ISMEAR =     1;   SIGMA  =   0.20  broadening in eV -4-tet -1-fermi 0-gaus

 Electronic relaxation 2 (details)
   IALGO  =     38    algorithm
   LDIAG  =      T    sub-space diagonalisation (order eigenvalues)
   LSUBROT=      F    optimize rotation matrix (better conditioning)
   TURBO    =      0    0=normal 1=particle mesh
   IRESTART =      0    0=no restart 2=restart with 2 vectors
   NREBOOT  =      0    no. of reboots
   NMIN     =      0    reboot dimension
   EREF     =   0.00    reference energy to select bands
   IMIX   =      4    mixing-type and parameters
     AMIX     =   0.40;   BMIX     =  1.00
     AMIX_MAG =   1.60;   BMIX_MAG =  1.00
     AMIN     =   0.10
     WC   =   100.;   INIMIX=   1;  MIXPRE=   1;  MAXMIX= -45

 Intra band minimization:
   WEIMIN = 0.0000     energy-eigenvalue tresh-hold
   EBREAK =  0.25E-07  absolut break condition
   DEPER  =   0.30     relativ break condition  

   TIME   =   0.40     timestep for ELM

  volume/ion in A,a.u.               =      39.24       264.83
  Fermi-wavevector in a.u.,A,eV,Ry     =   0.963488  1.820729 12.630418  0.928310
  Thomas-Fermi vector in A             =   2.093038
 
 Write flags
   LWAVE        =      F    write WAVECAR
   LDOWNSAMPLE  =      F    k-point downsampling of WAVECAR
   LCHARG       =      F    write CHGCAR
   LVTOT        =      F    write LOCPOT, total local potential
   LVHAR        =      F    write LOCPOT, Hartree potential only
   LELF         =      F    write electronic localiz. function (ELF)
   LORBIT       =      0    0 simple, 1 ext, 2 COOP (PROOUT), +10 PAW based schemes


 Dipole corrections
   LMONO  =      F    monopole corrections only (constant potential shift)
   LDIPOL =      F    correct potential (dipole corrections)
   IDIPOL =      3    1-x, 2-y, 3-z, 4-all directions 
   EPSILON=  1.0000000 bulk dielectric constant

 Exchange correlation treatment:
   GGA     =    --    GGA type
   LEXCH   =     8    internal setting for exchange type
   VOSKOWN=      0    Vosko Wilk Nusair interpolation
   LHFCALC =     F    Hartree Fock is set to
   LHFONE  =     F    Hartree Fock one center treatment
   AEXX    =    0.0000 exact exchange contribution

 Linear response parameters
   LEPSILON=     F    determine dielectric tensor
   LRPA    =     F    only Hartree local field effects (RPA)
   LNABLA  =     F    use nabla operator in PAW spheres
   LVEL    =     F    velocity operator in full k-point grid
   LINTERFAST=   F  fast interpolation
   KINTER  =     0    interpolate to denser k-point grid
   CSHIFT  =0.1000    complex shift for real part using Kramers Kronig
   OMEGAMAX=  -1.0    maximum frequency
   DEG_THRESHOLD= 0.2000000E-02 threshold for treating states as degnerate
   RTIME   =   -0.100 relaxation time in fs
  (WPLASMAI=    0.000 imaginary part of plasma frequency in eV, 0.658/RTIME)
   DFIELD  = 0.0000000 0.0000000 0.0000000 field for delta impulse in time
 
 Orbital magnetization related:
   ORBITALMAG=     F  switch on orbital magnetization
   LCHIMAG   =     F  perturbation theory with respect to B field
   DQ        =  0.001000  dq finite difference perturbation B field
   LLRAUG    =     F  two centre corrections for induced B field



--------------------------------------------------------------------------------------------------------


 Static calculation
 charge density and potential will be updated during run
 non-spin polarized calculation
 Variant of blocked Davidson
 Davidson routine will perform the subspace rotation
 perform sub-space diagonalisation
    after iterative eigenvector-optimisation
 modified Broyden-mixing scheme, WC =      100.0
 initial mixing is a Kerker type mixing with AMIX =  0.4000 and BMIX =      1.0000
 Hartree-type preconditioning will be used
 using additional bands           16
 real space projection scheme for non local part
 use partial core corrections
 calculate Harris-corrections to forces 
   (improved forces if not selfconsistent)
 use gradient corrections 
 use of overlap-Matrix (Vanderbilt PP)
 Methfessel and Paxton  Order N= 1 SIGMA  =   0.20


--------------------------------------------------------------------------------------------------------


  energy-cutoff  :      350.00
  volume of cell :      824.13
      direct lattice vectors                 reciprocal lattice vectors
     5.557859300  0.000000000  0.000000000     0.179925390 -0.103879972  0.000000000
     2.778929650  4.813247345  0.000000000     0.000000000  0.207759944  0.000000000
     0.000000000  0.000000000 30.806959674     0.000000000  0.000000000  0.032460198

  length of vectors
     5.557859300  5.557859300 30.806959674     0.207759944  0.207759944  0.032460198


 
 k-points in units of 2pi/SCALE and weight: 0.5.Ir1.Au10                            
   0.01124534  0.00649250  0.00000000       0.010
   0.00000000  0.01298500  0.00000000       0.010
  -0.01124534  0.00649250  0.00000000       0.010
   0.03373601 -0.00649250  0.00000000       0.010
   0.02249067  0.02596999  0.00000000       0.010
  -0.01124534  0.03246249  0.00000000       0.010
   0.02249067 -0.02596999  0.00000000       0.010
  -0.01124534 -0.03246249  0.00000000       0.010
  -0.03373601 -0.00649250  0.00000000       0.010
   0.05622668 -0.01947749  0.00000000       0.010
   0.04498135  0.03895499  0.00000000       0.010
  -0.01124534  0.05843248  0.00000000       0.010
   0.04498135 -0.03895499  0.00000000       0.010
  -0.01124534 -0.05843248  0.00000000       0.010
  -0.05622668 -0.01947749  0.00000000       0.010
   0.07871736 -0.03246249  0.00000000       0.010
   0.06747202  0.05193999  0.00000000       0.010
  -0.01124534  0.08440248  0.00000000       0.010
   0.06747202 -0.05193999  0.00000000       0.010
  -0.01124534 -0.08440248  0.00000000       0.010
  -0.07871736 -0.03246249  0.00000000       0.010
  -0.07871736  0.05843248  0.00000000       0.010
   0.08996269 -0.14283496  0.00000000       0.010
  -0.01124534  0.11037247  0.00000000       0.010
   0.08996269 -0.06492498  0.00000000       0.010
  -0.01124534  0.09738747  0.00000000       0.010
   0.07871736  0.05843248  0.00000000       0.010
  -0.05622668  0.04544749  0.00000000       0.010
  -0.06747202 -0.02596999  0.00000000       0.010
  -0.01124534 -0.07141748  0.00000000       0.010
  -0.06747202  0.02596999  0.00000000       0.010
  -0.01124534  0.07141748  0.00000000       0.010
   0.05622668  0.04544749  0.00000000       0.010
  -0.03373601  0.03246249  0.00000000       0.010
  -0.04498135 -0.01298500  0.00000000       0.010
  -0.01124534 -0.04544749  0.00000000       0.010
  -0.04498135  0.01298500  0.00000000       0.010
  -0.01124534  0.04544749  0.00000000       0.010
   0.03373601  0.03246249  0.00000000       0.010
  -0.01124534  0.01947749  0.00000000       0.010
  -0.02249067  0.00000000  0.00000000       0.010
  -0.01124534 -0.01947749  0.00000000       0.010
   0.03373601  0.01947749  0.00000000       0.010
   0.00000000  0.03895499  0.00000000       0.010
  -0.03373601  0.01947749  0.00000000       0.010
   0.05622668  0.00649250  0.00000000       0.010
   0.02249067  0.05193999  0.00000000       0.010
  -0.03373601  0.04544749  0.00000000       0.010
   0.02249067 -0.05193999  0.00000000       0.010
  -0.03373601 -0.04544749  0.00000000       0.010
  -0.05622668  0.00649250  0.00000000       0.010
   0.07871736 -0.00649250  0.00000000       0.010
   0.04498135  0.06492498  0.00000000       0.010
  -0.03373601  0.07141748  0.00000000       0.010
   0.04498135 -0.06492498  0.00000000       0.010
  -0.03373601 -0.07141748  0.00000000       0.010
  -0.07871736 -0.00649250  0.00000000       0.010
  -0.07871736  0.08440248  0.00000000       0.010
   0.06747202 -0.12984997  0.00000000       0.010
  -0.03373601  0.09738747  0.00000000       0.010
   0.06747202 -0.07790998  0.00000000       0.010
  -0.03373601  0.11037247  0.00000000       0.010
   0.07871736 -0.12335747  0.00000000       0.010
  -0.05622668  0.07141748  0.00000000       0.010
   0.08996269 -0.11686497  0.00000000       0.010
  -0.03373601  0.12335747  0.00000000       0.010
   0.08996269 -0.09089498  0.00000000       0.010
  -0.03373601  0.08440248  0.00000000       0.010
   0.05622668  0.07141748  0.00000000       0.010
  -0.03373601  0.05843248  0.00000000       0.010
  -0.06747202  0.00000000  0.00000000       0.010
  -0.03373601 -0.05843248  0.00000000       0.010
   0.05622668  0.03246249  0.00000000       0.010
   0.00000000  0.06492498  0.00000000       0.010
  -0.05622668  0.03246249  0.00000000       0.010
   0.07871736  0.01947749  0.00000000       0.010
   0.02249067  0.07790998  0.00000000       0.010
  -0.05622668  0.05843248  0.00000000       0.010
   0.02249067 -0.07790998  0.00000000       0.010
  -0.05622668 -0.05843248  0.00000000       0.010
  -0.07871736  0.01947749  0.00000000       0.010
  -0.07871736  0.11037247  0.00000000       0.010
   0.04498135 -0.11686497  0.00000000       0.010
  -0.05622668  0.08440248  0.00000000       0.010
   0.04498135 -0.09089498  0.00000000       0.010
  -0.05622668  0.12335747  0.00000000       0.010
   0.07871736 -0.09738747  0.00000000       0.010
  -0.05622668  0.09738747  0.00000000       0.010
   0.06747202 -0.10387997  0.00000000       0.010
  -0.05622668  0.11037247  0.00000000       0.010
   0.07871736  0.04544749  0.00000000       0.010
   0.00000000  0.09089498  0.00000000       0.010
  -0.07871736  0.04544749  0.00000000       0.010
  -0.07871736  0.13634246  0.00000000       0.010
   0.02249067 -0.10387997  0.00000000       0.010
  -0.07871736  0.07141748  0.00000000       0.010
 
 k-points in reciprocal lattice and weights: 0.5.Ir1.Au10                            
   0.06250000  0.06250000  0.00000000       0.010
   0.00000000  0.06250000  0.00000000       0.010
  -0.06250000  0.00000000  0.00000000       0.010
   0.18750000  0.06250000  0.00000000       0.010
   0.12500000  0.18750000  0.00000000       0.010
  -0.06250000  0.12500000  0.00000000       0.010
   0.12500000 -0.06250000  0.00000000       0.010
  -0.06250000 -0.18750000  0.00000000       0.010
  -0.18750000 -0.12500000  0.00000000       0.010
   0.31250000  0.06250000  0.00000000       0.010
   0.25000000  0.31250000  0.00000000       0.010
  -0.06250000  0.25000000  0.00000000       0.010
   0.25000000 -0.06250000  0.00000000       0.010
  -0.06250000 -0.31250000  0.00000000       0.010
  -0.31250000 -0.25000000  0.00000000       0.010
   0.43750000  0.06250000  0.00000000       0.010
   0.37500000  0.43750000  0.00000000       0.010
  -0.06250000  0.37500000  0.00000000       0.010
   0.37500000 -0.06250000  0.00000000       0.010
  -0.06250000 -0.43750000  0.00000000       0.010
  -0.43750000 -0.37500000  0.00000000       0.010
  -0.43750000  0.06250000  0.00000000       0.010
   0.50000000 -0.43750000  0.00000000       0.010
  -0.06250000  0.50000000  0.00000000       0.010
   0.50000000 -0.06250000  0.00000000       0.010
  -0.06250000  0.43750000  0.00000000       0.010
   0.43750000  0.50000000  0.00000000       0.010
  -0.31250000  0.06250000  0.00000000       0.010
  -0.37500000 -0.31250000  0.00000000       0.010
  -0.06250000 -0.37500000  0.00000000       0.010
  -0.37500000 -0.06250000  0.00000000       0.010
  -0.06250000  0.31250000  0.00000000       0.010
   0.31250000  0.37500000  0.00000000       0.010
  -0.18750000  0.06250000  0.00000000       0.010
  -0.25000000 -0.18750000  0.00000000       0.010
  -0.06250000 -0.25000000  0.00000000       0.010
  -0.25000000 -0.06250000  0.00000000       0.010
  -0.06250000  0.18750000  0.00000000       0.010
   0.18750000  0.25000000  0.00000000       0.010
  -0.06250000  0.06250000  0.00000000       0.010
  -0.12500000 -0.06250000  0.00000000       0.010
  -0.06250000 -0.12500000  0.00000000       0.010
   0.18750000  0.18750000  0.00000000       0.010
   0.00000000  0.18750000  0.00000000       0.010
  -0.18750000  0.00000000  0.00000000       0.010
   0.31250000  0.18750000  0.00000000       0.010
   0.12500000  0.31250000  0.00000000       0.010
  -0.18750000  0.12500000  0.00000000       0.010
   0.12500000 -0.18750000  0.00000000       0.010
  -0.18750000 -0.31250000  0.00000000       0.010
  -0.31250000 -0.12500000  0.00000000       0.010
   0.43750000  0.18750000  0.00000000       0.010
   0.25000000  0.43750000  0.00000000       0.010
  -0.18750000  0.25000000  0.00000000       0.010
   0.25000000 -0.18750000  0.00000000       0.010
  -0.18750000 -0.43750000  0.00000000       0.010
  -0.43750000 -0.25000000  0.00000000       0.010
  -0.43750000  0.18750000  0.00000000       0.010
   0.37500000 -0.43750000  0.00000000       0.010
  -0.18750000  0.37500000  0.00000000       0.010
   0.37500000 -0.18750000  0.00000000       0.010
  -0.18750000  0.43750000  0.00000000       0.010
   0.43750000 -0.37500000  0.00000000       0.010
  -0.31250000  0.18750000  0.00000000       0.010
   0.50000000 -0.31250000  0.00000000       0.010
  -0.18750000  0.50000000  0.00000000       0.010
   0.50000000 -0.18750000  0.00000000       0.010
  -0.18750000  0.31250000  0.00000000       0.010
   0.31250000  0.50000000  0.00000000       0.010
  -0.18750000  0.18750000  0.00000000       0.010
  -0.37500000 -0.18750000  0.00000000       0.010
  -0.18750000 -0.37500000  0.00000000       0.010
   0.31250000  0.31250000  0.00000000       0.010
   0.00000000  0.31250000  0.00000000       0.010
  -0.31250000  0.00000000  0.00000000       0.010
   0.43750000  0.31250000  0.00000000       0.010
   0.12500000  0.43750000  0.00000000       0.010
  -0.31250000  0.12500000  0.00000000       0.010
   0.12500000 -0.31250000  0.00000000       0.010
  -0.31250000 -0.43750000  0.00000000       0.010
  -0.43750000 -0.12500000  0.00000000       0.010
  -0.43750000  0.31250000  0.00000000       0.010
   0.25000000 -0.43750000  0.00000000       0.010
  -0.31250000  0.25000000  0.00000000       0.010
   0.25000000 -0.31250000  0.00000000       0.010
  -0.31250000  0.43750000  0.00000000       0.010
   0.43750000 -0.25000000  0.00000000       0.010
  -0.31250000  0.31250000  0.00000000       0.010
   0.37500000 -0.31250000  0.00000000       0.010
  -0.31250000  0.37500000  0.00000000       0.010
   0.43750000  0.43750000  0.00000000       0.010
   0.00000000  0.43750000  0.00000000       0.010
  -0.43750000 -0.00000000  0.00000000       0.010
  -0.43750000  0.43750000  0.00000000       0.010
   0.12500000 -0.43750000  0.00000000       0.010
  -0.43750000  0.12500000  0.00000000       0.010
 
 position of ions in fractional coordinates (direct lattice) 
   0.84696195  0.82338926  0.54065420
   0.01074733  0.98109434  0.69017974
   0.99380001  0.17439922  0.70246789
   0.82975437  0.96478855  0.70031374
   0.20438739  0.80006867  0.70147388
   0.03411199  0.49050216  0.66807570
   0.49800063  0.00035644  0.38943133
   0.17161701  0.66169954  0.46622978
   0.67188088  0.66154430  0.46469632
   0.84759418  0.32125635  0.54082826
   0.34533617  0.32323970  0.54007423
   0.17140518  0.16159048  0.46626675
   0.34238725  0.82451727  0.54103004
   0.01929878  0.98633160  0.62293096
   0.52092045  0.98492434  0.61412914
   0.02037745  0.48583553  0.61779056
   0.52177994  0.48469450  0.61415291
   0.49823728  0.50039678  0.38954309
   0.00186262  0.49861253  0.38964762
   0.67213082  0.16128225  0.46442436
   0.00211623  0.99851151  0.38968311
 
 position of ions in cartesian coordinates  (Angst):
   6.99543615  3.96317615 16.65591229
   2.78612430  4.72224971 21.26233952
   6.00804382  0.83942660 21.64090004
   7.29273753  4.64376592 21.57453721
   3.35929088  3.85092839 21.61027742
   1.55266063  2.36090824 20.58138119
   2.76880797  0.00171565 11.99719524
   2.79263966  3.18492355 14.36312210
   5.57260448  3.18417635 14.31588092
   5.60355797  1.54628628 16.66127443
   2.81759024  1.55583264 16.63804518
   1.40169446  0.77777495 14.36426087
   4.19421563  3.96860557 16.66749077
   2.84820604  4.74745795 19.19060882
   5.63223800  4.74068446 18.91945175
   1.46335777  2.33844657 19.03224895
   4.24691144  2.33295453 18.92018401
   4.15970017  2.40853346 12.00063815
   1.39596131  2.39994542 12.00385847
   4.18380055  0.77629135 14.30750240
   2.78655496  4.80608287 12.00495195
 


--------------------------------------------------------------------------------------------------------


 k-point  1 :   0.0625 0.0625 0.0000  plane waves:   12325
 k-point  2 :   0.0000 0.0625 0.0000  plane waves:   12325
 k-point  3 :  -0.0625 0.0000 0.0000  plane waves:   12325
 k-point  4 :   0.1875 0.0625 0.0000  plane waves:   12294
 k-point  5 :   0.1250 0.1875 0.0000  plane waves:   12294
 k-point  6 :  -0.0625 0.1250 0.0000  plane waves:   12294
 k-point  7 :   0.1250-0.0625 0.0000  plane waves:   12294
 k-point  8 :  -0.0625-0.1875 0.0000  plane waves:   12294
 k-point  9 :  -0.1875-0.1250 0.0000  plane waves:   12294
 k-point 10 :   0.3125 0.0625 0.0000  plane waves:   12263
 k-point 11 :   0.2500 0.3125 0.0000  plane waves:   12263
 k-point 12 :  -0.0625 0.2500 0.0000  plane waves:   12263
 k-point 13 :   0.2500-0.0625 0.0000  plane waves:   12263
 k-point 14 :  -0.0625-0.3125 0.0000  plane waves:   12263
 k-point 15 :  -0.3125-0.2500 0.0000  plane waves:   12263
 k-point 16 :   0.4375 0.0625 0.0000  plane waves:   12221
 k-point 17 :   0.3750 0.4375 0.0000  plane waves:   12221
 k-point 18 :  -0.0625 0.3750 0.0000  plane waves:   12221
 k-point 19 :   0.3750-0.0625 0.0000  plane waves:   12221
 k-point 20 :  -0.0625-0.4375 0.0000  plane waves:   12221
 k-point 21 :  -0.4375-0.3750 0.0000  plane waves:   12221
 k-point 22 :  -0.4375 0.0625 0.0000  plane waves:   12211
 k-point 23 :   0.5000-0.4375 0.0000  plane waves:   12211
 k-point 24 :  -0.0625 0.5000 0.0000  plane waves:   12211
 k-point 25 :   0.5000-0.0625 0.0000  plane waves:   12211
 k-point 26 :  -0.0625 0.4375 0.0000  plane waves:   12211
 k-point 27 :   0.4375 0.5000 0.0000  plane waves:   12211
 k-point 28 :  -0.3125 0.0625 0.0000  plane waves:   12242
 k-point 29 :  -0.3750-0.3125 0.0000  plane waves:   12242
 k-point 30 :  -0.0625-0.3750 0.0000  plane waves:   12242
 k-point 31 :  -0.3750-0.0625 0.0000  plane waves:   12242
 k-point 32 :  -0.0625 0.3125 0.0000  plane waves:   12242
 k-point 33 :   0.3125 0.3750 0.0000  plane waves:   12242
 k-point 34 :  -0.1875 0.0625 0.0000  plane waves:   12280
 k-point 35 :  -0.2500-0.1875 0.0000  plane waves:   12280
 k-point 36 :  -0.0625-0.2500 0.0000  plane waves:   12280
 k-point 37 :  -0.2500-0.0625 0.0000  plane waves:   12280
 k-point 38 :  -0.0625 0.1875 0.0000  plane waves:   12280
 k-point 39 :   0.1875 0.2500 0.0000  plane waves:   12280
 k-point 40 :  -0.0625 0.0625 0.0000  plane waves:   12329
 k-point 41 :  -0.1250-0.0625 0.0000  plane waves:   12329
 k-point 42 :  -0.0625-0.1250 0.0000  plane waves:   12329
 k-point 43 :   0.1875 0.1875 0.0000  plane waves:   12277
 k-point 44 :   0.0000 0.1875 0.0000  plane waves:   12277
 k-point 45 :  -0.1875 0.0000 0.0000  plane waves:   12277
 k-point 46 :   0.3125 0.1875 0.0000  plane waves:   12288
 k-point 47 :   0.1250 0.3125 0.0000  plane waves:   12288
 k-point 48 :  -0.1875 0.1250 0.0000  plane waves:   12288
 k-point 49 :   0.1250-0.1875 0.0000  plane waves:   12288
 k-point 50 :  -0.1875-0.3125 0.0000  plane waves:   12288
 k-point 51 :  -0.3125-0.1250 0.0000  plane waves:   12288
 k-point 52 :   0.4375 0.1875 0.0000  plane waves:   12234
 k-point 53 :   0.2500 0.4375 0.0000  plane waves:   12234
 k-point 54 :  -0.1875 0.2500 0.0000  plane waves:   12234
 k-point 55 :   0.2500-0.1875 0.0000  plane waves:   12234
 k-point 56 :  -0.1875-0.4375 0.0000  plane waves:   12234
 k-point 57 :  -0.4375-0.2500 0.0000  plane waves:   12234
 k-point 58 :  -0.4375 0.1875 0.0000  plane waves:   12216
 k-point 59 :   0.3750-0.4375 0.0000  plane waves:   12216
 k-point 60 :  -0.1875 0.3750 0.0000  plane waves:   12216
 k-point 61 :   0.3750-0.1875 0.0000  plane waves:   12216
 k-point 62 :  -0.1875 0.4375 0.0000  plane waves:   12216
 k-point 63 :   0.4375-0.3750 0.0000  plane waves:   12216
 k-point 64 :  -0.3125 0.1875 0.0000  plane waves:   12215
 k-point 65 :   0.5000-0.3125 0.0000  plane waves:   12215
 k-point 66 :  -0.1875 0.5000 0.0000  plane waves:   12215
 k-point 67 :   0.5000-0.1875 0.0000  plane waves:   12215
 k-point 68 :  -0.1875 0.3125 0.0000  plane waves:   12215
 k-point 69 :   0.3125 0.5000 0.0000  plane waves:   12215
 k-point 70 :  -0.1875 0.1875 0.0000  plane waves:   12289
 k-point 71 :  -0.3750-0.1875 0.0000  plane waves:   12289
 k-point 72 :  -0.1875-0.3750 0.0000  plane waves:   12289
 k-point 73 :   0.3125 0.3125 0.0000  plane waves:   12275
 k-point 74 :   0.0000 0.3125 0.0000  plane waves:   12275
 k-point 75 :  -0.3125 0.0000 0.0000  plane waves:   12275
 k-point 76 :   0.4375 0.3125 0.0000  plane waves:   12239
 k-point 77 :   0.1250 0.4375 0.0000  plane waves:   12239
 k-point 78 :  -0.3125 0.1250 0.0000  plane waves:   12239
 k-point 79 :   0.1250-0.3125 0.0000  plane waves:   12239
 k-point 80 :  -0.3125-0.4375 0.0000  plane waves:   12239
 k-point 81 :  -0.4375-0.1250 0.0000  plane waves:   12239
 k-point 82 :  -0.4375 0.3125 0.0000  plane waves:   12235
 k-point 83 :   0.2500-0.4375 0.0000  plane waves:   12235
 k-point 84 :  -0.3125 0.2500 0.0000  plane waves:   12235
 k-point 85 :   0.2500-0.3125 0.0000  plane waves:   12235
 k-point 86 :  -0.3125 0.4375 0.0000  plane waves:   12235
 k-point 87 :   0.4375-0.2500 0.0000  plane waves:   12235
 k-point 88 :  -0.3125 0.3125 0.0000  plane waves:   12232
 k-point 89 :   0.3750-0.3125 0.0000  plane waves:   12232
 k-point 90 :  -0.3125 0.3750 0.0000  plane waves:   12232
 k-point 91 :   0.4375 0.4375 0.0000  plane waves:   12200
 k-point 92 :   0.0000 0.4375 0.0000  plane waves:   12200
 k-point 93 :  -0.4375-0.0000 0.0000  plane waves:   12200
 k-point 94 :  -0.4375 0.4375 0.0000  plane waves:   12214
 k-point 95 :   0.1250-0.4375 0.0000  plane waves:   12214
 k-point 96 :  -0.4375 0.1250 0.0000  plane waves:   12214

 maximum and minimum number of plane-waves per node :      3101     2992

 maximum number of plane-waves:     12329
 maximum index in each direction: 
   IXMAX=    8   IYMAX=    8   IZMAX=   46
   IXMIN=   -8   IYMIN=   -8   IZMIN=  -46


 real space projection operators:
  total allocation   :       5096.45 KBytes
  max/ min on nodes  :       1276.35       1270.66


 parallel 3D FFT for wavefunctions:
    minimum data exchange during FFTs selected (reduces bandwidth)
 parallel 3D FFT for charge:
    minimum data exchange during FFTs selected (reduces bandwidth)


 total amount of memory used by VASP MPI-rank0   164314. kBytes
=======================================================================

   base      :      30000. kBytes
   nonlr-proj:       2361. kBytes
   fftplans  :       2967. kBytes
   grid      :       6321. kBytes
   one-center:         93. kBytes
   wavefun   :     122572. kBytes
 
     INWAV:  cpu time    0.0000: real time    0.0000
 Broyden mixing: mesh for mixing (old mesh)
   NGX = 17   NGY = 17   NGZ = 93
  (NGX  = 56   NGY  = 56   NGZ  =288)
  gives a total of  26877 points

 initial charge density was supplied:
 charge density of overlapping atoms calculated
 number of electron     168.0000000 magnetization 
 keeping initial charge density in first step


--------------------------------------------------------------------------------------------------------


 Maximum index for non-local projection operator          541
 Maximum index for augmentation-charges          718 (set IRDMAX)


--------------------------------------------------------------------------------------------------------


 First call to EWALD:  gamma=   0.189
 Maximum number of real-space cells 5x 5x 1
 Maximum number of reciprocal cells 2x 2x 8

    FEWALD:  cpu time    0.0014: real time    0.0015


--------------------------------------- Iteration      1(   1)  ---------------------------------------


    POTLOK:  cpu time    0.0257: real time    0.0322
    SETDIJ:  cpu time    0.0035: real time    0.0035
     EDDAV:  cpu time   13.8428: real time   13.8437
       DOS:  cpu time    0.0078: real time    0.0078
    --------------------------------------------
      LOOP:  cpu time   13.8799: real time   13.8873

 eigenvalue-minimisations  : 19288
 total energy-change (2. order) : 0.1028954E+04  (-0.5831685E+04)
 number of electron     168.0000000 magnetization 
 augmentation part      168.0000000 magnetization 

 Free energy of the ion-electron system (eV)
  ---------------------------------------------------
  alpha Z        PSCENC =       324.87461712
  Ewald energy   TEWEN  =    101301.58452280
  -Hartree energ DENC   =   -113590.03916575
  -exchange      EXHF   =         0.00000000
  -V(xc)+E(xc)   XCENC  =        69.10700446
  PAW double counting   =     11288.27476651   -10829.50941267
  entropy T*S    EENTRO =        -0.00296304
  eigenvalues    EBANDS =       574.02687004
  atomic energy  EATOM  =     11890.63736546
  Solvation  Ediel_sol  =         0.00000000
  ---------------------------------------------------
  free energy    TOTEN  =      1028.95360494 eV

  energy without entropy =     1028.95656797  energy(sigma->0) =     1028.95459262


--------------------------------------------------------------------------------------------------------




--------------------------------------- Iteration      1(   2)  ---------------------------------------


     EDDAV:  cpu time   16.3406: real time   16.3452
       DOS:  cpu time    0.0085: real time    0.0085
    --------------------------------------------
      LOOP:  cpu time   16.3491: real time   16.3537

 eigenvalue-minimisations  : 24016
 total energy-change (2. order) :-0.1059011E+04  (-0.9842691E+03)
 number of electron     168.0000000 magnetization 
 augmentation part      168.0000000 magnetization 

 Free energy of the ion-electron system (eV)
  ---------------------------------------------------
  alpha Z        PSCENC =       324.87461712
  Ewald energy   TEWEN  =    101301.58452280
  -Hartree energ DENC   =   -113590.03916575
  -exchange      EXHF   =         0.00000000
  -V(xc)+E(xc)   XCENC  =        69.10700446
  PAW double counting   =     11288.27476651   -10829.50941267
  entropy T*S    EENTRO =        -0.00393122
  eigenvalues    EBANDS =      -484.98303912
  atomic energy  EATOM  =     11890.63736546
  Solvation  Ediel_sol  =         0.00000000
  ---------------------------------------------------
  free energy    TOTEN  =       -30.05727241 eV

  energy without entropy =      -30.05334119  energy(sigma->0) =      -30.05596200


--------------------------------------------------------------------------------------------------------




--------------------------------------- Iteration      1(   3)  ---------------------------------------


     EDDAV:  cpu time   15.5114: real time   15.5130
       DOS:  cpu time    0.0082: real time    0.0082
    --------------------------------------------
      LOOP:  cpu time   15.5195: real time   15.5212

 eigenvalue-minimisations  : 23056
 total energy-change (2. order) :-0.9129767E+02  (-0.8451242E+02)
 number of electron     168.0000000 magnetization 
 augmentation part      168.0000000 magnetization 

 Free energy of the ion-electron system (eV)
  ---------------------------------------------------
  alpha Z        PSCENC =       324.87461712
  Ewald energy   TEWEN  =    101301.58452280
  -Hartree energ DENC   =   -113590.03916575
  -exchange      EXHF   =         0.00000000
  -V(xc)+E(xc)   XCENC  =        69.10700446
  PAW double counting   =     11288.27476651   -10829.50941267
  entropy T*S    EENTRO =        -0.01840833
  eigenvalues    EBANDS =      -576.26622987
  atomic energy  EATOM  =     11890.63736546
  Solvation  Ediel_sol  =         0.00000000
  ---------------------------------------------------
  free energy    TOTEN  =      -121.35494027 eV

  energy without entropy =     -121.33653194  energy(sigma->0) =     -121.34880416


--------------------------------------------------------------------------------------------------------




--------------------------------------- Iteration      1(   4)  ---------------------------------------


     EDDAV:  cpu time   16.8006: real time   16.8013
       DOS:  cpu time    0.0088: real time    0.0088
    --------------------------------------------
      LOOP:  cpu time   16.8094: real time   16.8101

 eigenvalue-minimisations  : 25568
 total energy-change (2. order) :-0.4407889E+01  (-0.4194658E+01)
 number of electron     168.0000000 magnetization 
 augmentation part      168.0000000 magnetization 

 Free energy of the ion-electron system (eV)
  ---------------------------------------------------
  alpha Z        PSCENC =       324.87461712
  Ewald energy   TEWEN  =    101301.58452280
  -Hartree energ DENC   =   -113590.03916575
  -exchange      EXHF   =         0.00000000
  -V(xc)+E(xc)   XCENC  =        69.10700446
  PAW double counting   =     11288.27476651   -10829.50941267
  entropy T*S    EENTRO =        -0.02198329
  eigenvalues    EBANDS =      -580.67054357
  atomic energy  EATOM  =     11890.63736546
  Solvation  Ediel_sol  =         0.00000000
  ---------------------------------------------------
  free energy    TOTEN  =      -125.76282893 eV

  energy without entropy =     -125.74084564  energy(sigma->0) =     -125.75550117


--------------------------------------------------------------------------------------------------------




--------------------------------------- Iteration      1(   5)  ---------------------------------------


     EDDAV:  cpu time   17.4203: real time   17.4220
       DOS:  cpu time    0.0089: real time    0.0089
    CHARGE:  cpu time    0.7121: real time    0.7121
    MIXING:  cpu time    0.0010: real time    0.0011
    --------------------------------------------
      LOOP:  cpu time   18.1424: real time   18.1441

 eigenvalue-minimisations  : 26676
 total energy-change (2. order) :-0.1389446E+00  (-0.1375955E+00)
 number of electron     168.0000021 magnetization 
 augmentation part       46.7977280 magnetization 

 Broyden mixing:
  rms(total) = 0.43083E+01    rms(broyden)= 0.43079E+01
  rms(prec ) = 0.43588E+01
  weight for this iteration     100.00

 Free energy of the ion-electron system (eV)
  ---------------------------------------------------
  alpha Z        PSCENC =       324.87461712
  Ewald energy   TEWEN  =    101301.58452280
  -Hartree energ DENC   =   -113590.03916575
  -exchange      EXHF   =         0.00000000
  -V(xc)+E(xc)   XCENC  =        69.10700446
  PAW double counting   =     11288.27476651   -10829.50941267
  entropy T*S    EENTRO =        -0.02200094
  eigenvalues    EBANDS =      -580.80947048
  atomic energy  EATOM  =     11890.63736546
  Solvation  Ediel_sol  =         0.00000000
  ---------------------------------------------------
  free energy    TOTEN  =      -125.90177349 eV

  energy without entropy =     -125.87977255  energy(sigma->0) =     -125.89443984


--------------------------------------------------------------------------------------------------------




--------------------------------------- Iteration      1(   6)  ---------------------------------------


    POTLOK:  cpu time    0.0240: real time    0.0274
    SETDIJ:  cpu time    0.0034: real time    0.0034
     EDDAV:  cpu time   15.5260: real time   15.5264
       DOS:  cpu time    0.0102: real time    0.0102
    CHARGE:  cpu time    0.7462: real time    0.7462
    MIXING:  cpu time    0.0010: real time    0.0011
    --------------------------------------------
      LOOP:  cpu time   16.3108: real time   16.3147

 eigenvalue-minimisations  : 23096
 total energy-change (2. order) : 0.7558279E+01  (-0.3738410E+01)
 number of electron     168.0000013 magnetization 
 augmentation part       49.8570927 magnetization 

 Broyden mixing:
  rms(total) = 0.32362E+01    rms(broyden)= 0.32361E+01
  rms(prec ) = 0.33293E+01
  weight for this iteration     100.00

 eigenvalues of (default mixing * dielectric matrix)
  average eigenvalue GAMMA=   1.1323
  1.1323

 Free energy of the ion-electron system (eV)
  ---------------------------------------------------
  alpha Z        PSCENC =       324.87461712
  Ewald energy   TEWEN  =    101301.58452280
  -Hartree energ DENC   =   -113350.70312227
  -exchange      EXHF   =         0.00000000
  -V(xc)+E(xc)   XCENC  =        65.87133137
  PAW double counting   =     12533.19587838   -12098.73081876
  entropy T*S    EENTRO =         0.00041770
  eigenvalues    EBANDS =      -785.07368582
  atomic energy  EATOM  =     11890.63736546
  Solvation  Ediel_sol  =         0.00000000
  ---------------------------------------------------
  free energy    TOTEN  =      -118.34349402 eV

  energy without entropy =     -118.34391171  energy(sigma->0) =     -118.34363325


--------------------------------------------------------------------------------------------------------




--------------------------------------- Iteration      1(   7)  ---------------------------------------


    POTLOK:  cpu time    0.0217: real time    0.0227
    SETDIJ:  cpu time    0.0034: real time    0.0034
     EDDAV:  cpu time   17.6627: real time   17.6632
       DOS:  cpu time    0.0099: real time    0.0099
    CHARGE:  cpu time    0.7126: real time    0.7126
    MIXING:  cpu time    0.0012: real time    0.0012
    --------------------------------------------
      LOOP:  cpu time   18.4114: real time   18.4129

 eigenvalue-minimisations  : 27184
 total energy-change (2. order) :-0.1902832E+02  (-0.8353021E+01)
 number of electron     168.0000026 magnetization 
 augmentation part       49.2220200 magnetization 

 Broyden mixing:
  rms(total) = 0.42607E+01    rms(broyden)= 0.42606E+01
  rms(prec ) = 0.47078E+01
  weight for this iteration     100.00

 eigenvalues of (default mixing * dielectric matrix)
  average eigenvalue GAMMA=   1.0728
  1.8722  0.2734

 Free energy of the ion-electron system (eV)
  ---------------------------------------------------
  alpha Z        PSCENC =       324.87461712
  Ewald energy   TEWEN  =    101301.58452280
  -Hartree energ DENC   =   -113547.76750015
  -exchange      EXHF   =         0.00000000
  -V(xc)+E(xc)   XCENC  =        65.47004646
  PAW double counting   =     13511.44600843   -13085.86110636
  entropy T*S    EENTRO =        -0.01791387
  eigenvalues    EBANDS =      -597.73785637
  atomic energy  EATOM  =     11890.63736546
  Solvation  Ediel_sol  =         0.00000000
  ---------------------------------------------------
  free energy    TOTEN  =      -137.37181647 eV

  energy without entropy =     -137.35390260  energy(sigma->0) =     -137.36584518


--------------------------------------------------------------------------------------------------------




--------------------------------------- Iteration      1(   8)  ---------------------------------------


    POTLOK:  cpu time    0.0237: real time    0.0240
    SETDIJ:  cpu time    0.0034: real time    0.0034
     EDDAV:  cpu time   18.9050: real time   18.9055
       DOS:  cpu time    0.0098: real time    0.0098
    CHARGE:  cpu time    0.7145: real time    0.7145
    MIXING:  cpu time    0.0012: real time    0.0012
    --------------------------------------------
      LOOP:  cpu time   19.6575: real time   19.6584

 eigenvalue-minimisations  : 29556
 total energy-change (2. order) : 0.1908810E+02  (-0.3601581E+01)
 number of electron     168.0000018 magnetization 
 augmentation part       50.4930841 magnetization 

 Broyden mixing:
  rms(total) = 0.16892E+01    rms(broyden)= 0.16890E+01
  rms(prec ) = 0.20981E+01
  weight for this iteration     100.00

 eigenvalues of (default mixing * dielectric matrix)
  average eigenvalue GAMMA=   0.9552
  2.0178  0.5772  0.2706

 Free energy of the ion-electron system (eV)
  ---------------------------------------------------
  alpha Z        PSCENC =       324.87461712
  Ewald energy   TEWEN  =    101301.58452280
  -Hartree energ DENC   =   -113393.78581180
  -exchange      EXHF   =         0.00000000
  -V(xc)+E(xc)   XCENC  =        64.95156178
  PAW double counting   =     14455.51448580   -14039.80412414
  entropy T*S    EENTRO =         0.01840683
  eigenvalues    EBANDS =      -722.27474367
  atomic energy  EATOM  =     11890.63736546
  Solvation  Ediel_sol  =         0.00000000
[...]
     21      -5.1849      2.00000
     22      -5.0578      2.00000
     23      -5.0133      2.00000
     24      -4.8509      2.00000
     25      -4.7944      2.00000
     26      -4.7382      2.00000
     27      -4.7168      2.00000
     28      -4.6457      2.00000
     29      -4.6058      2.00000
     30      -4.5531      2.00000
     31      -4.5207      2.00000
     32      -4.3606      2.00000
     33      -4.3047      2.00000
     34      -4.1937      2.00000
     35      -4.1491      2.00000
     36      -4.1046      2.00000
     37      -4.0268      2.00000
     38      -3.9677      2.00000
     39      -3.9037      2.00000
     40      -3.8491      2.00000
     41      -3.7653      2.00000
     42      -3.6573      2.00000
     43      -3.6450      2.00000
     44      -3.5966      2.00000
     45      -3.4933      2.00000
     46      -3.4496      2.00000
     47      -3.4041      2.00000
     48      -3.3214      2.00000
     49      -3.2882      2.00000
     50      -3.1945      2.00000
     51      -3.1607      2.00000
     52      -3.1105      2.00000
     53      -3.0455      2.00000
     54      -2.9992      2.00000
     55      -2.9396      2.00000
     56      -2.8211      2.00000
     57      -2.6920      2.00000
     58      -2.6346      2.00000
     59      -2.5023      2.00000
     60      -2.4482      2.00000
     61      -2.3299      2.00000
     62      -2.3014      2.00000
     63      -2.2170      2.00000
     64      -2.1363      2.00000
     65      -2.1173      2.00000
     66      -2.0752      2.00000
     67      -1.9166      2.00000
     68      -1.8763      2.00000
     69      -1.7608      2.00000
     70      -1.7249      2.00000
     71      -1.6687      2.00000
     72      -1.5612      2.00000
     73      -1.4833      2.00000
     74      -1.4543      2.00000
     75      -1.3930      2.00000
     76      -1.2690      2.00000
     77      -1.1822      2.00000
     78      -1.1143      2.00000
     79      -1.0339      2.00001
     80      -0.9298      2.00015
     81      -0.8368      2.00164
     82      -0.7102      2.01913
     83      -0.5508      2.06879
     84      -0.4553      1.89684
     85      -0.3823      1.48844
     86      -0.2906      0.74187
     87      -0.2229      0.26724
     88      -0.1335     -0.03555
     89      -0.0666     -0.07019
     90       0.6051     -0.00000
     91       0.8837     -0.00000
     92       1.1162     -0.00000
     93       1.1798     -0.00000
     94       1.9767     -0.00000
     95       2.7262     -0.00000
     96       2.8424     -0.00000
     97       3.1237     -0.00000
     98       3.7230     -0.00000
     99       3.9967     -0.00000
    100       4.5085     -0.00000

 k-point    96 :      -0.4375    0.1250    0.0000
  band No.  band energies     occupation 
      1     -12.4730      2.00000
      2      -7.8479      2.00000
      3      -7.7596      2.00000
      4      -6.9215      2.00000
      5      -6.8285      2.00000
      6      -6.3695      2.00000
      7      -6.2893      2.00000
      8      -6.0926      2.00000
      9      -6.0143      2.00000
     10      -5.9459      2.00000
     11      -5.9093      2.00000
     12      -5.8088      2.00000
     13      -5.7528      2.00000
     14      -5.6896      2.00000
     15      -5.6607      2.00000
     16      -5.6127      2.00000
     17      -5.5500      2.00000
     18      -5.4801      2.00000
     19      -5.3339      2.00000
     20      -5.2623      2.00000
     21      -5.2377      2.00000
     22      -5.1317      2.00000
     23      -5.0485      2.00000
     24      -4.9385      2.00000
     25      -4.8744      2.00000
     26      -4.8041      2.00000
     27      -4.7337      2.00000
     28      -4.6801      2.00000
     29      -4.6138      2.00000
     30      -4.5817      2.00000
     31      -4.5206      2.00000
     32      -4.3953      2.00000
     33      -4.2829      2.00000
     34      -4.2426      2.00000
     35      -4.1951      2.00000
     36      -4.1212      2.00000
     37      -4.0552      2.00000
     38      -3.9089      2.00000
     39      -3.8643      2.00000
     40      -3.8290      2.00000
     41      -3.8079      2.00000
     42      -3.6949      2.00000
     43      -3.6461      2.00000
     44      -3.5841      2.00000
     45      -3.5475      2.00000
     46      -3.4639      2.00000
     47      -3.3699      2.00000
     48      -3.3346      2.00000
     49      -3.2281      2.00000
     50      -3.1978      2.00000
     51      -3.1511      2.00000
     52      -3.0957      2.00000
     53      -3.0134      2.00000
     54      -2.9740      2.00000
     55      -2.9137      2.00000
     56      -2.8722      2.00000
     57      -2.7730      2.00000
     58      -2.5628      2.00000
     59      -2.5221      2.00000
     60      -2.4259      2.00000
     61      -2.3763      2.00000
     62      -2.2771      2.00000
     63      -2.2073      2.00000
     64      -2.1675      2.00000
     65      -2.0838      2.00000
     66      -2.0068      2.00000
     67      -1.9224      2.00000
     68      -1.8188      2.00000
     69      -1.7871      2.00000
     70      -1.7740      2.00000
     71      -1.6449      2.00000
     72      -1.5578      2.00000
     73      -1.5110      2.00000
     74      -1.4435      2.00000
     75      -1.4006      2.00000
     76      -1.3128      2.00000
     77      -1.1809      2.00000
     78      -1.1052      2.00000
     79      -1.0499      2.00000
     80      -0.8582      2.00098
     81      -0.7181      2.01689
     82      -0.6094      2.06051
     83      -0.5441      2.06645
     84      -0.4691      1.94458
     85      -0.3816      1.48361
     86      -0.2583      0.49304
     87      -0.2302      0.30906
     88      -0.1502     -0.00627
     89       0.0324     -0.03125
     90       0.6402     -0.00000
     91       0.8683     -0.00000
     92       1.2035     -0.00000
     93       1.2775     -0.00000
     94       1.8857     -0.00000
     95       2.3921     -0.00000
     96       2.7783     -0.00000
     97       3.3753     -0.00000
     98       3.7057     -0.00000
     99       4.0322     -0.00000
    100       4.3646     -0.00000


--------------------------------------------------------------------------------------------------------


 soft charge-density along one line, spin component           1
         0         1         2         3         4         5         6         7         8         9
 total charge-density along one line
 
 pseudopotential strength for first ion, spin component:           1
 -7.957   0.003   0.003  -0.010  -0.001  -8.106   0.003   0.003
  0.003  -7.935  -0.002   0.002  -0.010   0.003  -8.084  -0.002
  0.003  -0.002  -7.938   0.008  -0.001   0.003  -0.002  -8.087
 -0.010   0.002   0.008  -7.933   0.003  -0.009   0.002   0.008
 -0.001  -0.010  -0.001   0.003  -7.959  -0.001  -0.010  -0.001
 -8.106   0.003   0.003  -0.009  -0.001  -8.238   0.003   0.003
  0.003  -8.084  -0.002   0.002  -0.010   0.003  -8.216  -0.002
  0.003  -0.002  -8.087   0.008  -0.001   0.003  -0.002  -8.220
 -0.009   0.002   0.008  -8.082   0.003  -0.009   0.002   0.008
 -0.001  -0.010  -0.001   0.003  -8.107  -0.001  -0.010  -0.001
 -0.000   0.001  -0.006  -0.004  -0.000  -0.001   0.001  -0.006
 -0.001   0.001  -0.009  -0.005  -0.000  -0.001   0.001  -0.009
 -0.001   0.002  -0.000  -0.000  -0.000  -0.001   0.001  -0.000
 -0.000  -0.000   0.002  -0.001  -0.000  -0.000  -0.000   0.002
  0.000  -0.000   0.000   0.001  -0.001   0.000  -0.000   0.000
 -0.001   0.002  -0.000  -0.000  -0.000  -0.001   0.002  -0.000
 -0.000   0.000   0.002  -0.001  -0.000  -0.000   0.000   0.002
  0.000  -0.000   0.000   0.001  -0.001   0.000  -0.000   0.000
 total augmentation occupancy for first ion, spin component:           1
  5.967  -0.156   0.108   0.053  -0.037  -3.971   0.153  -0.067  -0.191   0.027   0.078  -0.013  -0.001   0.021   0.002  -0.001
 -0.156   5.629  -0.028  -0.116  -0.084   0.153  -3.473  -0.000   0.148  -0.073  -0.035  -0.004   0.035  -0.013   0.015  -0.000
  0.108  -0.028   6.351   0.098  -0.010  -0.068  -0.000  -4.321  -0.000   0.001   0.202  -0.012  -0.007   0.059   0.044  -0.001
  0.053  -0.116   0.098   5.802  -0.196  -0.190   0.148  -0.000  -3.640   0.185   0.202  -0.029   0.016   0.061   0.028  -0.000
 -0.037  -0.084  -0.010  -0.196   5.932   0.027  -0.075   0.001   0.184  -3.950  -0.016  -0.002   0.006  -0.008  -0.007  -0.001
 -3.971   0.153  -0.068  -0.190   0.027   3.880  -0.151   0.036   0.294  -0.020  -0.079   0.020   0.003  -0.018  -0.002   0.000
  0.153  -3.473  -0.000   0.148  -0.075  -0.151   3.255   0.022  -0.174   0.195   0.032   0.000  -0.030   0.007  -0.013   0.001
 -0.067  -0.000  -4.321  -0.000   0.001   0.036   0.022   4.203  -0.077   0.006  -0.188   0.014   0.004  -0.055  -0.042   0.000
 -0.191   0.148  -0.000  -3.640   0.184   0.294  -0.174  -0.077   3.417  -0.176  -0.196   0.038  -0.014  -0.055  -0.028   0.000
  0.027  -0.073   0.001   0.185  -3.950  -0.020   0.195   0.006  -0.176   3.870   0.016  -0.001  -0.004   0.005   0.010   0.000
  0.078  -0.035   0.202   0.202  -0.016  -0.079   0.032  -0.188  -0.196   0.016   2.942  -0.783  -0.004  -0.019   0.001   0.000
 -0.013  -0.004  -0.012  -0.029  -0.002   0.020   0.000   0.014   0.038  -0.001  -0.783   0.238  -0.001   0.007   0.004  -0.000
 -0.001   0.035  -0.007   0.016   0.006   0.003  -0.030   0.004  -0.014  -0.004  -0.004  -0.001   0.249   0.002  -0.002  -0.008
  0.021  -0.013   0.059   0.061  -0.008  -0.018   0.007  -0.055  -0.055   0.005  -0.019   0.007   0.002   0.226  -0.010  -0.000
  0.002   0.015   0.044   0.028  -0.007  -0.002  -0.013  -0.042  -0.028   0.010   0.001   0.004  -0.002  -0.010   0.249   0.000
 -0.001  -0.000  -0.001  -0.000  -0.001   0.000   0.001   0.000   0.000   0.000   0.000  -0.000  -0.008  -0.000   0.000   0.000
 -0.000  -0.000  -0.000  -0.002  -0.000   0.000   0.000   0.001   0.001   0.000   0.001  -0.000  -0.000  -0.008   0.000   0.000
  0.000  -0.000   0.000  -0.000  -0.001   0.000   0.000   0.001   0.001   0.000  -0.000  -0.000   0.000   0.000  -0.008  -0.000


------------------------ aborting loop because EDIFF is reached ----------------------------------------



 DIPCOR: dipole corrections for dipol
 direction  3 min pos    18,
 dipolmoment           0.000000      0.000000     -0.231093 electrons x Angstroem
 Tr[quadrupol]      -932.768908

 energy correction for charged system         0.000000 eV
 dipol+quadrupol energy correction            0.005863 eV
 added-field ion interaction          0.000000 eV  (added to PSCEN)

 
  *************** adding dipol energy to TOTEN NOW **************** 
    CHARGE:  cpu time    0.7089: real time    0.7089
    FORLOC:  cpu time    0.0070: real time    0.0070
    FORNL :  cpu time    3.0545: real time    3.0550
    STRESS:  cpu time    9.2070: real time    9.2072
    FORCOR:  cpu time    0.0285: real time    0.0285
    FORHAR:  cpu time    0.0118: real time    0.0118
    MIXING:  cpu time    0.0040: real time    0.0040
    OFIELD:  cpu time    0.0000: real time    0.0000

  FORCE on cell =-STRESS in cart. coord.  units (eV):
  Direction    XX          YY          ZZ          XY          YZ          ZX
  --------------------------------------------------------------------------------------
  Alpha Z   324.87462   324.87462   324.87462
  Ewald  110164.33732110178.30084************    15.43425     8.10086    -8.70582
  Hartree112667.13285112682.18642************    13.50403     2.51301    -3.67418
  E(xc)    -737.13588  -737.15197  -741.15354     0.02435     0.00445     0.03239
  Local  ************************227983.83972   -29.55540    -9.74691    12.98889
  n-local    46.90542    46.38552    38.98418    -0.12167     0.71818    -0.62482
  augment   836.14453   836.92823   856.14058     0.20108    -0.40430    -0.02389
  Kinetic  2385.84625  2387.77231  2439.67734     0.68137    -0.77603    -0.64377
  Fock        0.00000     0.00000     0.00000     0.00000     0.00000     0.00000
  -------------------------------------------------------------------------------------
  Total     -11.55946   -11.29037    -1.30833     0.16802     0.40927    -0.65120
  in kB     -22.47261   -21.94948    -2.54352     0.32665     0.79566    -1.26598
  external pressure =      -15.66 kB  Pullay stress =        0.00 kB


 VOLUME and BASIS-vectors are now :
 -----------------------------------------------------------------------------
  energy-cutoff  :      350.00
  volume of cell :      824.13
      direct lattice vectors                 reciprocal lattice vectors
     5.557859300  0.000000000  0.000000000     0.179925390 -0.103879972  0.000000000
     2.778929650  4.813247345  0.000000000     0.000000000  0.207759944  0.000000000
     0.000000000  0.000000000 30.806959674     0.000000000  0.000000000  0.032460198

  length of vectors
     5.557859300  5.557859300 30.806959674     0.207759944  0.207759944  0.032460198


 FORCES acting on ions
    electron-ion (+dipol)            ewald-force                    non-local-force                 convergence-correction
 -----------------------------------------------------------------------------------------------
   -.313E+01 -.170E+01 -.811E+03   0.343E+01 0.152E+01 0.811E+03   -.266E+00 0.172E+00 0.353E-01   0.389E-04 -.256E-03 0.292E-02
   -.275E+00 -.967E+00 -.134E+04   0.253E+00 0.102E+01 0.134E+04   -.161E-01 -.503E-01 -.148E+01   -.239E-04 -.164E-04 -.834E-03
   -.183E+02 -.394E+02 -.346E+03   0.206E+02 0.441E+02 0.348E+03   -.223E+01 -.469E+01 -.190E+01   0.553E-04 0.130E-03 -.221E-03
   0.464E+02 0.209E+01 -.344E+03   -.516E+02 -.247E+01 0.346E+03   0.527E+01 0.385E+00 -.154E+01   -.136E-03 -.134E-04 -.230E-03
   -.263E+02 0.379E+02 -.345E+03   0.292E+02 -.422E+02 0.347E+03   -.288E+01 0.436E+01 -.173E+01   0.705E-04 -.123E-03 -.229E-03
   -.177E+01 0.114E+01 -.365E+03   0.193E+01 -.107E+01 0.368E+03   -.199E+00 -.507E-01 -.307E+01   -.332E-05 -.502E-05 -.280E-03
   -.278E+01 0.185E+01 0.266E+04   0.271E+01 -.180E+01 -.266E+04   0.574E-01 -.504E-01 -.145E+00   -.711E-04 0.714E-04 0.413E-02
   -.592E+01 0.236E+01 0.113E+04   0.608E+01 -.244E+01 -.113E+04   0.216E-01 -.216E-01 -.670E+00   0.474E-05 -.210E-03 0.747E-02
   0.547E+01 -.301E+01 0.116E+04   -.559E+01 0.316E+01 -.116E+04   -.213E-01 -.566E-01 0.139E+00   0.170E-04 -.784E-03 0.805E-02
   0.931E-01 0.281E+01 -.741E+03   0.330E+00 -.296E+01 0.741E+03   -.411E+00 0.186E+00 0.175E-02   0.122E-03 0.152E-03 0.267E-02
   -.119E+00 0.902E-01 -.719E+03   -.210E+00 0.126E+00 0.718E+03   0.313E+00 -.249E+00 0.141E+00   -.121E-03 0.188E-03 0.273E-02
   -.459E+01 0.365E+01 0.113E+04   0.466E+01 -.370E+01 -.113E+04   0.586E-01 -.228E-01 -.722E+00   -.475E-03 0.481E-03 0.819E-02
   0.198E+01 -.166E+01 -.744E+03   -.233E+01 0.185E+01 0.744E+03   0.421E+00 -.150E+00 -.190E-01   -.271E-04 -.103E-03 0.245E-02
   -.977E+01 -.288E+01 -.261E+04   0.954E+01 0.298E+01 0.262E+04   0.306E+00 -.639E-01 -.523E+01   0.131E-04 0.572E-04 -.148E-02
   0.910E+01 -.505E+01 -.257E+04   -.939E+01 0.510E+01 0.257E+04   0.114E+00 0.414E-01 0.139E+01   -.234E-04 0.126E-03 -.619E-03
   0.106E+01 0.823E+01 -.258E+04   -.898E+00 -.821E+01 0.258E+04   -.152E+00 -.124E+00 -.604E+01   0.581E-04 -.101E-03 -.698E-03
   0.266E+01 -.176E+01 -.257E+04   -.241E+01 0.168E+01 0.256E+04   -.266E+00 0.819E-01 0.126E+01   -.800E-04 -.669E-04 -.670E-03
   -.334E+01 0.190E+01 0.295E+04   0.319E+01 -.179E+01 -.295E+04   0.213E+00 -.158E+00 -.639E+00   -.101E-03 0.187E-04 0.440E-02
   0.278E+01 -.929E+00 0.295E+04   -.268E+01 0.935E+00 -.295E+04   -.134E+00 -.486E-01 -.658E+00   0.718E-04 -.242E-04 0.446E-02
   0.437E+01 -.265E+01 0.117E+04   -.457E+01 0.265E+01 -.117E+04   0.494E-01 0.633E-01 0.162E-01   0.521E-03 0.487E-03 0.827E-02
   0.223E+01 -.159E+01 0.295E+04   -.215E+01 0.154E+01 -.295E+04   -.638E-01 0.952E-01 -.761E+00   0.239E-04 -.318E-04 0.450E-02
 -----------------------------------------------------------------------------------------------
   -.201E+00 0.349E+00 0.216E+02   -.644E-13 0.411E-13 0.227E-11   0.197E+00 -.348E+00 -.216E+02   -.653E-04 -.236E-04 0.550E-01
 
 
 POSITION                                       TOTAL-FORCE (eV/Angst)
 -----------------------------------------------------------------------------------
      6.99544      3.96318     16.65591         0.030531     -0.014852      0.132003
      2.78612      4.72225     21.26234        -0.038595     -0.000695     -0.017016
      6.00804      0.83943     21.64090         0.010466      0.016737     -0.021387
      7.29274      4.64377     21.57454         0.003834      0.002168      0.022336
      3.35929      3.85093     21.61028         0.016213     -0.009613     -0.012000
      1.55266      2.36091     20.58138        -0.037817      0.013247      0.002866
      2.76881      0.00172     11.99720        -0.009417     -0.002111      1.182175
      2.79264      3.18492     14.36312         0.186296     -0.100775     -0.268564
      5.57260      3.18418     14.31588        -0.141472      0.096308     -0.416282
      5.60356      1.54629     16.66127         0.012017      0.036706     -0.189451
      2.81759      1.55583     16.63805        -0.016045     -0.032309      0.040927
      1.40169      0.77777     14.36426         0.135998     -0.074521     -0.224711
      4.19422      3.96861     16.66749         0.066028      0.036405      0.032109
      2.84821      4.74746     19.19061         0.072115      0.036932      0.087771
      5.63224      4.74068     18.91945        -0.176232      0.089033      0.404866
      1.46336      2.33845     19.03225         0.009148     -0.113546      0.152511
      4.24691      2.33295     18.92018        -0.021224      0.003019     -0.056080
      4.15970      2.40853     12.00064         0.059563     -0.046249     -0.274406
      1.39596      2.39995     12.00386        -0.032162     -0.042861     -0.074128
      4.18380      0.77629     14.30750        -0.148167      0.066130     -0.430215
      2.78655      4.80608     12.00495         0.018922      0.040846     -0.073323
 -----------------------------------------------------------------------------------
    total drift:                               -0.004059      0.000278     -0.006114


--------------------------------------------------------------------------------------------------------



  FREE ENERGIE OF THE ION-ELECTRON SYSTEM (eV)
  ---------------------------------------------------
  free  energy   TOTEN  =      -115.52923262 eV

  energy  without entropy=     -115.50347256  energy(sigma->0) =     -115.52064593
 


--------------------------------------------------------------------------------------------------------


    POTLOK:  cpu time    0.0260: real time    0.0261


--------------------------------------------------------------------------------------------------------


     LOOP+:  cpu time  559.2896: real time  559.3752
    4ORBIT:  cpu time    0.0000: real time    0.0000

 total amount of memory used by VASP MPI-rank0   164314. kBytes
=======================================================================

   base      :      30000. kBytes
   nonlr-proj:       2361. kBytes
   fftplans  :       2967. kBytes
   grid      :       6321. kBytes
   one-center:         93. kBytes
   wavefun   :     122572. kBytes
 
  
  
 General timing and accounting informations for this job:
 ========================================================
  
                  Total CPU time used (sec):      567.013
                            User time (sec):      565.644
                          System time (sec):        1.369
                         Elapsed time (sec):      567.252
  
                   Maximum memory used (kb):      207640.
                   Average memory used (kb):           0.
  
                          Minor page faults:        84847
                          Major page faults:            0
                 Voluntary context switches:          821
