 vasp.5.4.4.18Apr17-6-g9f103f2a35 (build Apr 28 2017 10:53:45) complex          
  
 executed on             LinuxIFC date 2019.07.18  16:17:17
 running on   16 total cores
 distrk:  each k-point on   16 cores,    1 groups
 distr:  one band on NCORES_PER_BAND=   4 cores,    4 groups


--------------------------------------------------------------------------------------------------------


 INCAR:
 POTCAR:    PAW_PBE Au 04Oct2007                  
 POTCAR:    PAW_PBE Ir 06Sep2000                  
 POTCAR:    PAW_PBE Pt 04Feb2005                  
 POTCAR:    PAW_PBE Au 04Oct2007                  
   VRHFIN =Au: s1d10                                                            
   LEXCH  = PE                                                                  
   EATOM  =   926.0867 eV,   68.0654 Ry                                         
                                                                                
   TITEL  = PAW_PBE Au 04Oct2007                                                
   LULTRA =        F    use ultrasoft PP ?                                      
   IUNSCR =        1    unscreen: 0-lin 1-nonlin 2-no                           
   RPACOR =    2.330    partial core radius                                     
   POMASS =  196.966; ZVAL   =   11.000    mass and valenz                      
   RCORE  =    2.500    outmost cutoff radius                                   
   RWIGS  =    2.840; RWIGS  =    1.503    wigner-seitz radius (au A)           
   ENMAX  =  229.943; ENMIN  =  172.457 eV                                      
   ICORE  =        3    local potential                                         
   LCOR   =        T    correct aug charges                                     
   LPAW   =        T    paw PP                                                  
   EAUG   =  356.670                                                            
   DEXC   =    0.000                                                            
   RMAX   =    2.562    core radius for proj-oper                               
   RAUG   =    1.300    factor for augmentation sphere                          
   RDEP   =    2.598    radius for radial grids                                 
   RDEPT  =    2.193    core radius for aug-charge                              
                                                                                
   Atomic configuration                                                         
   16 entries                                                                   
     n  l   j            E        occ.                                          
     1  0  0.50    -80748.5001   2.0000                                         
     2  0  0.50    -14244.7466   2.0000                                         
     2  1  1.50    -12310.9591   6.0000                                         
     3  0  0.50     -3362.1768   2.0000                                         
     3  1  1.50     -2801.5463   6.0000                                         
     3  2  2.50     -2203.8206  10.0000                                         
     4  0  0.50      -729.8168   2.0000                                         
     4  1  1.50      -546.0527   6.0000                                         
     4  2  2.50      -325.7302  10.0000                                         
     4  3  3.50       -81.1472  14.0000                                         
     5  0  0.50      -108.3201   2.0000                                         
     5  1  1.50       -59.7479   6.0000                                         
     5  2  2.50        -6.8783  10.0000                                         
     6  0  0.50        -5.7602   1.0000                                         
     6  1  1.50        -6.8029   0.0000                                         
     5  3  2.50        -1.3606   0.0000                                         
   Description                                                                  
     l       E           TYP  RCUT    TYP  RCUT                                 
     2     -6.8782861     23  2.500                                             
     2     -8.2388687     23  2.500                                             
     0     -5.7601759     23  2.500                                             
     0     -0.8493231     23  2.500                                             
     1     -2.7211652     23  2.500                                             
     1     27.2116520     23  2.500                                             
     3     -1.3605826     23  2.500                                             
  local pseudopotential read in
  partial core-charges read in
  partial kinetic energy density read in
  atomic valenz-charges read in
  non local Contribution for L=           2  read in
    real space projection operators read in
  non local Contribution for L=           2  read in
    real space projection operators read in
  non local Contribution for L=           0  read in
    real space projection operators read in
  non local Contribution for L=           0  read in
    real space projection operators read in
  non local Contribution for L=           1  read in
    real space projection operators read in
  non local Contribution for L=           1  read in
    real space projection operators read in
    PAW grid and wavefunctions read in
 
   number of l-projection  operators is LMAX  =           6
   number of lm-projection operators is LMMAX =          18
 
 POTCAR:    PAW_PBE Ir 06Sep2000                  
   VRHFIN =Ir: s1d8                                                             
   LEXCH  = PE                                                                  
   EATOM  =   560.1833 eV,   41.1723 Ry                                         
                                                                                
   TITEL  = PAW_PBE Ir 06Sep2000                                                
   LULTRA =        F    use ultrasoft PP ?                                      
   IUNSCR =        1    unscreen: 0-lin 1-nonlin 2-no                           
   RPACOR =    2.250    partial core radius                                     
   POMASS =  192.220; ZVAL   =    9.000    mass and valenz                      
   RCORE  =    2.600    outmost cutoff radius                                   
   RWIGS  =    2.690; RWIGS  =    1.423    wigner-seitz radius (au A)           
   ENMAX  =  210.864; ENMIN  =  158.148 eV                                      
   RCLOC  =    1.857    cutoff for local pot                                    
   LCOR   =        T    correct aug charges                                     
   LPAW   =        T    paw PP                                                  
   EAUG   =  318.962                                                            
   DEXC   =    0.000                                                            
   RMAX   =    2.667    core radius for proj-oper                               
   RAUG   =    1.300    factor for augmentation sphere                          
   RDEP   =    2.748    radius for radial grids                                 
   RDEPT  =    2.300    core radius for aug-charge                              
                                                                                
   Atomic configuration                                                         
   16 entries                                                                   
     n  l   j            E        occ.                                          
     1  0  0.50    -76100.0449   2.0000                                         
     2  0  0.50    -13308.1683   2.0000                                         
     2  1  1.50    -11558.0021   6.0000                                         
     3  0  0.50     -3110.7274   2.0000                                         
     3  1  1.50     -2599.2109   6.0000                                         
     3  2  2.50     -2037.1515  10.0000                                         
     4  0  0.50      -661.6001   2.0000                                         
     4  1  1.50      -493.8981   6.0000                                         
     4  2  2.50      -288.1909  10.0000                                         
     4  3  3.50       -59.5718  14.0000                                         
     5  0  0.50       -95.3879   2.0000                                         
     5  1  1.50       -52.2747   6.0000                                         
     5  2  2.50        -5.4180   8.0000                                         
     6  0  0.50        -5.5479   1.0000                                         
     6  1  1.50        -6.8029   0.0000                                         
     5  3  2.50        -1.3606   0.0000                                         
   Description                                                                  
     l       E           TYP  RCUT    TYP  RCUT                                 
     2     -5.4179967     23  2.600                                             
     2     -6.7785793     23  2.600                                             
     0     -5.5478636     23  2.600                                             
     0      2.2542272     23  2.600                                             
     1     -2.7211652     23  2.600                                             
     1     20.4087390     23  2.600                                             
  local pseudopotential read in
  partial core-charges read in
  partial kinetic energy density read in
  atomic valenz-charges read in
  non local Contribution for L=           2  read in
    real space projection operators read in
  non local Contribution for L=           2  read in
    real space projection operators read in
  non local Contribution for L=           0  read in
    real space projection operators read in
  non local Contribution for L=           0  read in
    real space projection operators read in
  non local Contribution for L=           1  read in
    real space projection operators read in
  non local Contribution for L=           1  read in
    real space projection operators read in
    PAW grid and wavefunctions read in
 
   number of l-projection  operators is LMAX  =           6
   number of lm-projection operators is LMMAX =          18
 
 POTCAR:    PAW_PBE Pt 04Feb2005                  
   VRHFIN =Pt: s1d9                                                             
   LEXCH  = PE                                                                  
   EATOM  =   729.1176 eV,   53.5886 Ry                                         
                                                                                
   TITEL  = PAW_PBE Pt 04Feb2005                                                
   LULTRA =        F    use ultrasoft PP ?                                      
   IUNSCR =        1    unscreen: 0-lin 1-nonlin 2-no                           
   RPACOR =    2.330    partial core radius                                     
   POMASS =  195.080; ZVAL   =   10.000    mass and valenz                      
   RCORE  =    2.600    outmost cutoff radius                                   
   RWIGS  =    2.750; RWIGS  =    1.455    wigner-seitz radius (au A)           
   ENMAX  =  230.283; ENMIN  =  172.712 eV                                      
   ICORE  =        3    local potential                                         
   LCOR   =        T    correct aug charges                                     
   LPAW   =        T    paw PP                                                  
   EAUG   =  358.966                                                            
   DEXC   =    0.000                                                            
   RMAX   =    2.658    core radius for proj-oper                               
   RAUG   =    1.300    factor for augmentation sphere                          
   RDEP   =    2.761    radius for radial grids                                 
   RDEPT  =    2.203    core radius for aug-charge                              
                                                                                
   Atomic configuration                                                         
   16 entries                                                                   
     n  l   j            E        occ.                                          
     1  0  0.50    -78401.1885   2.0000                                         
     2  0  0.50    -13770.7750   2.0000                                         
     2  1  1.50    -11931.0468   6.0000                                         
     3  0  0.50     -3234.7234   2.0000                                         
     3  1  1.50     -2699.2216   6.0000                                         
     3  2  2.50     -2119.5714  10.0000                                         
     4  0  0.50      -695.1528   2.0000                                         
     4  1  1.50      -519.6034   6.0000                                         
     4  2  2.50      -306.6786  10.0000                                         
     4  3  3.50       -70.1041  14.0000                                         
     5  0  0.50      -101.7747   2.0000                                         
     5  1  1.50       -55.9873   6.0000                                         
     5  2  2.50        -6.1423   9.0000                                         
     6  0  0.50        -5.6573   1.0000                                         
     6  1  1.50        -6.8029   0.0000                                         
     5  3  2.50        -1.3606   0.0000                                         
   Description                                                                  
     l       E           TYP  RCUT    TYP  RCUT                                 
     2     -6.1423404     23  2.500                                             
     2     -7.5029230     23  2.500                                             
     0     -5.6573207     23  2.500                                             
     0      0.7416693     23  2.500                                             
     1     -2.7211652     23  2.600                                             
     1     20.4087390     23  2.600                                             
     3     -1.3605826     23  2.500                                             
  local pseudopotential read in
  partial core-charges read in
  partial kinetic energy density read in
  atomic valenz-charges read in
  non local Contribution for L=           2  read in
    real space projection operators read in
  non local Contribution for L=           2  read in
    real space projection operators read in
  non local Contribution for L=           0  read in
    real space projection operators read in
  non local Contribution for L=           0  read in
    real space projection operators read in
  non local Contribution for L=           1  read in
    real space projection operators read in
  non local Contribution for L=           1  read in
    real space projection operators read in
    PAW grid and wavefunctions read in
 
   number of l-projection  operators is LMAX  =           6
   number of lm-projection operators is LMMAX =          18
 
 Optimization of the real space projectors (new method)

 maximal supplied QI-value         = 15.12
 optimisation between [QCUT,QGAM] = [  9.52, 19.05] = [ 25.40,101.61] Ry 
 Optimized for a Real-space Cutoff    1.57 Angstroem

   l    n(q)    QCUT    max X(q) W(low)/X(q) W(high)/X(q)  e(spline) 
   2      8     9.524    60.898    0.38E-03    0.43E-04    0.84E-07
   2      8     9.524    58.894    0.38E-03    0.47E-04    0.88E-07
   0      9     9.524   109.617    0.60E-04    0.64E-04    0.80E-07
   0      9     9.524    75.026    0.59E-04    0.62E-04    0.78E-07
   1      8     9.524    16.344    0.99E-04    0.18E-03    0.87E-07
   1      8     9.524    10.160    0.78E-04    0.15E-03    0.74E-07
 Optimization of the real space projectors (new method)

 maximal supplied QI-value         = 14.36
 optimisation between [QCUT,QGAM] = [  9.48, 19.10] = [ 25.16,102.17] Ry 
 Optimized for a Real-space Cutoff    1.57 Angstroem

   l    n(q)    QCUT    max X(q) W(low)/X(q) W(high)/X(q)  e(spline) 
   2      8     9.479   134.116    0.18E-03    0.75E-03    0.26E-06
   2      8     9.479   130.192    0.18E-03    0.75E-03    0.27E-06
   0      9     9.479    60.310    0.39E-03    0.24E-03    0.63E-07
   0      9     9.479    39.218    0.36E-03    0.22E-03    0.59E-07
   1      8     9.479    18.439    0.20E-03    0.15E-03    0.16E-06
   1      8     9.479    12.760    0.16E-03    0.11E-03    0.13E-06
 Optimization of the real space projectors (new method)

 maximal supplied QI-value         = 14.36
 optimisation between [QCUT,QGAM] = [  9.48, 19.10] = [ 25.16,102.17] Ry 
 Optimized for a Real-space Cutoff    1.57 Angstroem

   l    n(q)    QCUT    max X(q) W(low)/X(q) W(high)/X(q)  e(spline) 
   2      8     9.479    66.195    0.35E-03    0.53E-04    0.87E-07
   2      8     9.479    64.643    0.35E-03    0.57E-04    0.91E-07
   0      9     9.479    95.520    0.50E-04    0.62E-04    0.81E-07
   0      9     9.479    63.403    0.49E-04    0.60E-04    0.78E-07
   1      8     9.479    19.961    0.10E-03    0.87E-04    0.11E-06
   1      8     9.479    13.289    0.88E-04    0.71E-04    0.97E-07
  PAW_PBE Au 04Oct2007                  :
 energy of atom  1       EATOM= -926.0867
 kinetic energy error for atom=    0.0152 (will be added to EATOM!!)
  PAW_PBE Ir 06Sep2000                  :
 energy of atom  2       EATOM= -560.1833
 kinetic energy error for atom=    0.0056 (will be added to EATOM!!)
  PAW_PBE Pt 04Feb2005                  :
 energy of atom  3       EATOM= -729.1176
 kinetic energy error for atom=    0.0144 (will be added to EATOM!!)
 
 
 POSCAR: Au Ir Pt                                
  positions in cartesian coordinates
  No initial velocities read in
 exchange correlation table for  LEXCH =        8
   RHO(1)=    0.500       N(1)  =     2000
   RHO(2)=  100.500       N(2)  =     4000
 


--------------------------------------------------------------------------------------------------------


 ion  position               nearest neighbor table
   1  0.333  0.333  0.544-  12 2.77  11 2.77  12 2.77  11 2.77  10 2.77  10 2.77   7 2.81   8 2.81
                             6 2.81  16 2.83  15 2.83  14 2.83
   2  0.500  0.000  0.373-   5 2.77   4 2.77   5 2.77   4 2.77   3 2.77   3 2.77   7 2.77   6 2.77
                             9 2.77
   3  0.000  0.000  0.373-   4 2.77   4 2.77   5 2.77   5 2.77   2 2.77   2 2.77   6 2.77   7 2.77
                             8 2.77
   4  0.000  0.500  0.373-   3 2.77   2 2.77   3 2.77   2 2.77   5 2.77   5 2.77   8 2.77   6 2.77
                             9 2.77
   5  0.500  0.500  0.373-   2 2.77   2 2.77   3 2.77   3 2.77   4 2.77   4 2.77   9 2.77   8 2.77
                             7 2.77
   6  0.167  0.167  0.458-   8 2.77   8 2.77   9 2.77   9 2.77   7 2.77   7 2.77   3 2.77   2 2.77
                             4 2.77  10 2.81  12 2.81   1 2.81
   7  0.667  0.167  0.458-   9 2.77   8 2.77   9 2.77   8 2.77   6 2.77   6 2.77   2 2.77   3 2.77
                             5 2.77   1 2.81  11 2.81  10 2.81
   8  0.167  0.667  0.458-   6 2.77   6 2.77   7 2.77   7 2.77   9 2.77   9 2.77   4 2.77   3 2.77
                             5 2.77   1 2.81  11 2.81  12 2.81
   9  0.667  0.667  0.458-   7 2.77   6 2.77   7 2.77   6 2.77   8 2.77   8 2.77   5 2.77   4 2.77
                             2 2.77  10 2.81  12 2.81  11 2.81
  10  0.833  0.333  0.544-  11 2.77  11 2.77  12 2.77  12 2.77   1 2.77   1 2.77   9 2.81   6 2.81
                             7 2.81  15 2.83  13 2.83  16 2.83
  11  0.833  0.833  0.544-  10 2.77   1 2.77  10 2.77   1 2.77  12 2.77  12 2.77   7 2.81   8 2.81
                             9 2.81  13 2.83  14 2.83  15 2.83
  12  0.333  0.833  0.544-   1 2.77   1 2.77  10 2.77  10 2.77  11 2.77  11 2.77   9 2.81   6 2.81
                             8 2.81  14 2.83  13 2.83  16 2.83
  13  0.000  0.000  0.631-  15 2.77  15 2.77  16 2.77  16 2.77  14 2.77  14 2.77  11 2.83  10 2.83
                            12 2.83
  14  0.500  0.000  0.631-  16 2.77  15 2.77  16 2.77  15 2.77  13 2.77  13 2.77  12 2.83  11 2.83
                             1 2.83
  15  0.000  0.500  0.631-  13 2.77  13 2.77  14 2.77  14 2.77  16 2.77  16 2.77  10 2.83   1 2.83
                            11 2.83
  16  0.500  0.500  0.631-  14 2.77  13 2.77  14 2.77  13 2.77  15 2.77  15 2.77   1 2.83  10 2.83
                            12 2.83
 
  LATTYP: Found a hexagonal cell.
 ALAT       =     5.5437171645
 C/A-ratio  =     4.8324325305
  
  Lattice vectors:
  
 A1 = (   2.7718585823,  -4.8009998959,   0.0000000000)
 A2 = (  -5.5437171645,   0.0000000000,   0.0000000000)
 A3 = (   0.0000000000,   0.0000000000, -26.7896391657)


Analysis of symmetry for initial positions (statically):
=====================================================================
 Subroutine PRICEL returns:
 Original cell was already a primitive cell.
 

 Routine SETGRP: Setting up the symmetry group for a 
 hexagonal supercell.


 Subroutine GETGRP returns: Found  2 space group operations
 (whereof  2 operations were pure point group operations)
 out of a pool of 24 trial point group operations.


The static configuration has the point symmetry C_1h.


Analysis of symmetry for dynamics (positions and initial velocities):
=====================================================================
 Subroutine PRICEL returns:
 Original cell was already a primitive cell.
 

 Routine SETGRP: Setting up the symmetry group for a 
 hexagonal supercell.


 Subroutine GETGRP returns: Found  2 space group operations
 (whereof  2 operations were pure point group operations)
 out of a pool of 24 trial point group operations.


The dynamic configuration has the point symmetry C_1h.


Analysis of constrained symmetry for selective dynamics:
=====================================================================
 Subroutine PRICEL returns:
 Original cell was already a primitive cell.
 

 Routine SETGRP: Setting up the symmetry group for a 
 hexagonal supercell.


 Subroutine GETGRP returns: Found  2 space group operations
 (whereof  2 operations were pure point group operations)
 out of a pool of 24 trial point group operations.


The constrained configuration has the point symmetry C_1h.


 Subroutine INISYM returns: Found  2 space group operations
 (whereof  2 operations are pure point group operations),
 and found     1 'primitive' translations

 
 
 KPOINTS: 0.6.Ir1.Au9                             

Automatic generation of k-mesh.
Space group operators:
 irot       det(A)        alpha          n_x          n_y          n_z        tau_x        tau_y        tau_z
    1     1.000000     0.000001     1.000000     0.000000     0.000000     0.000000     0.000000     0.000000
    2    -1.000000   180.000000     1.000000     0.000000     0.000000     0.000000     0.000000     0.000000
 
 Subroutine IBZKPT returns following result:
 ===========================================
 
 Found     52 irreducible k-points:
 
 Following reciprocal coordinates:
            Coordinates               Weight
  0.062500  0.062500  0.000000     32.000000
  0.000000  0.062500  0.000000     16.000000
  0.187500  0.062500  0.000000     32.000000
  0.125000  0.187500  0.000000     32.000000
 -0.062500  0.125000  0.000000     32.000000
  0.312500  0.062500  0.000000     32.000000
  0.250000  0.312500  0.000000     32.000000
 -0.062500  0.250000  0.000000     32.000000
  0.437500  0.062500  0.000000     32.000000
  0.375000  0.437500  0.000000     32.000000
 -0.062500  0.375000  0.000000     32.000000
 -0.437500  0.062500  0.000000     32.000000
  0.500000 -0.437500  0.000000     32.000000
 -0.062500  0.500000  0.000000     32.000000
 -0.312500  0.062500  0.000000     32.000000
 -0.375000 -0.312500  0.000000     32.000000
 -0.062500 -0.375000  0.000000     32.000000
 -0.187500  0.062500  0.000000     32.000000
 -0.250000 -0.187500  0.000000     32.000000
 -0.062500 -0.250000  0.000000     32.000000
 -0.062500  0.062500  0.000000     32.000000
 -0.125000 -0.062500  0.000000     16.000000
  0.187500  0.187500  0.000000     32.000000
  0.000000  0.187500  0.000000     16.000000
  0.312500  0.187500  0.000000     32.000000
  0.125000  0.312500  0.000000     32.000000
 -0.187500  0.125000  0.000000     32.000000
  0.437500  0.187500  0.000000     32.000000
  0.250000  0.437500  0.000000     32.000000
 -0.187500  0.250000  0.000000     32.000000
 -0.437500  0.187500  0.000000     32.000000
  0.375000 -0.437500  0.000000     32.000000
 -0.187500  0.375000  0.000000     32.000000
 -0.312500  0.187500  0.000000     32.000000
  0.500000 -0.312500  0.000000     32.000000
 -0.187500  0.500000  0.000000     32.000000
 -0.187500  0.187500  0.000000     32.000000
 -0.375000 -0.187500  0.000000     16.000000
  0.312500  0.312500  0.000000     32.000000
  0.000000  0.312500  0.000000     16.000000
  0.437500  0.312500  0.000000     32.000000
  0.125000  0.437500  0.000000     32.000000
 -0.312500  0.125000  0.000000     32.000000
 -0.437500  0.312500  0.000000     32.000000
  0.250000 -0.437500  0.000000     32.000000
 -0.312500  0.250000  0.000000     32.000000
 -0.312500  0.312500  0.000000     32.000000
  0.375000 -0.312500  0.000000     16.000000
  0.437500  0.437500  0.000000     32.000000
  0.000000  0.437500  0.000000     16.000000
 -0.437500  0.437500  0.000000     32.000000
  0.125000 -0.437500  0.000000     16.000000
 
 Following cartesian coordinates:
            Coordinates               Weight
  0.011274  0.006509  0.000000     32.000000
  0.000000  0.013018  0.000000     16.000000
  0.033822 -0.006509  0.000000     32.000000
  0.022548  0.026036  0.000000     32.000000
 -0.011274  0.032545  0.000000     32.000000
  0.056370 -0.019527  0.000000     32.000000
  0.045096  0.039054  0.000000     32.000000
 -0.011274  0.058582  0.000000     32.000000
  0.078918 -0.032545  0.000000     32.000000
  0.067644  0.052072  0.000000     32.000000
 -0.011274  0.084618  0.000000     32.000000
 -0.078918  0.058582  0.000000     32.000000
  0.090192 -0.143199  0.000000     32.000000
 -0.011274  0.110654  0.000000     32.000000
 -0.056370  0.045563  0.000000     32.000000
 -0.067644 -0.026036  0.000000     32.000000
 -0.011274 -0.071600  0.000000     32.000000
 -0.033822  0.032545  0.000000     32.000000
 -0.045096 -0.013018  0.000000     32.000000
 -0.011274 -0.045563  0.000000     32.000000
 -0.011274  0.019527  0.000000     32.000000
 -0.022548  0.000000  0.000000     16.000000
  0.033822  0.019527  0.000000     32.000000
  0.000000  0.039054  0.000000     16.000000
  0.056370  0.006509  0.000000     32.000000
  0.022548  0.052072  0.000000     32.000000
 -0.033822  0.045563  0.000000     32.000000
  0.078918 -0.006509  0.000000     32.000000
  0.045096  0.065091  0.000000     32.000000
 -0.033822  0.071600  0.000000     32.000000
 -0.078918  0.084618  0.000000     32.000000
  0.067644 -0.130181  0.000000     32.000000
 -0.033822  0.097636  0.000000     32.000000
 -0.056370  0.071600  0.000000     32.000000
  0.090192 -0.117163  0.000000     32.000000
 -0.033822  0.123672  0.000000     32.000000
 -0.033822  0.058582  0.000000     32.000000
 -0.067644  0.000000  0.000000     16.000000
  0.056370  0.032545  0.000000     32.000000
  0.000000  0.065091  0.000000     16.000000
  0.078918  0.019527  0.000000     32.000000
  0.022548  0.078109  0.000000     32.000000
 -0.056370  0.058582  0.000000     32.000000
 -0.078918  0.110654  0.000000     32.000000
  0.045096 -0.117163  0.000000     32.000000
 -0.056370  0.084618  0.000000     32.000000
 -0.056370  0.097636  0.000000     32.000000
  0.067644 -0.104145  0.000000     16.000000
  0.078918  0.045563  0.000000     32.000000
  0.000000  0.091127  0.000000     16.000000
 -0.078918  0.136690  0.000000     32.000000
  0.022548 -0.104145  0.000000     16.000000
 


--------------------------------------------------------------------------------------------------------




 Dimension of arrays:
   k-points           NKPTS =     52   k-points in BZ     NKDIM =     52   number of bands    NBANDS=     96
   number of dos      NEDOS =    301   number of ions     NIONS =     16
   non local maximal  LDIM  =      6   non local SUM 2l+1 LMDIM =     18
   total plane-waves  NPLWV =  98784
   max r-space proj   IRMAX =   2277   max aug-charges    IRDMAX=  10217
   dimension x,y,z NGX =    28 NGY =   28 NGZ =  126
   dimension x,y,z NGXF=    56 NGYF=   56 NGZF=  252
   support grid    NGXF=    56 NGYF=   56 NGZF=  252
   ions per type =               1   1  14
   NGX,Y,Z   is equivalent  to a cutoff of   8.40,  8.40,  7.82 a.u.
   NGXF,Y,Z  is equivalent  to a cutoff of  16.79, 16.79, 15.64 a.u.

 SYSTEM =  0.6.Ir1.Au9                             
 POSCAR =  Au Ir Pt                                

 Startparameter for this run:
   NWRITE =      2    write-flag & timer
   PREC   = normal    normal or accurate (medium, high low for compatibility)
   ISTART =      0    job   : 0-new  1-cont  2-samecut
   ICHARG =      2    charge: 1-file 2-atom 10-const
   ISPIN  =      1    spin polarized calculation?
   LNONCOLLINEAR =      F non collinear calculations
   LSORBIT =      F    spin-orbit coupling
   INIWAV =      1    electr: 0-lowe 1-rand  2-diag
   LASPH  =      F    aspherical Exc in radial PAW
   METAGGA=      F    non-selfconsistent MetaGGA calc.

 Electronic Relaxation 1
   ENCUT  =  350.0 eV  25.72 Ry    5.07 a.u.   8.46  8.46 40.87*2*pi/ulx,y,z
   ENINI  =  350.0     initial cutoff
   ENAUG  =  359.0 eV  augmentation charge cutoff
   NELM   =   1000;   NELMIN=  5; NELMDL= -5     # of ELM steps 
   EDIFF  = 0.1E-04   stopping-criterion for ELM
   LREAL  =      T    real-space projection
   NLSPLINE    = F    spline interpolate recip. space projectors
   LCOMPAT=      F    compatible to vasp.4.4
   GGA_COMPAT  = T    GGA compatible to vasp.4.4-vasp.4.6
   LMAXPAW     = -100 max onsite density
   LMAXMIX     =    2 max onsite mixed and CHGCAR
   VOSKOWN=      0    Vosko Wilk Nusair interpolation
   ROPT   =   -0.00050  -0.00050  -0.00050
 Ionic relaxation
   EDIFFG = 0.1E-03   stopping-criterion for IOM
   NSW    =      0    number of steps for IOM
   NBLOCK =      1;   KBLOCK =      1    inner block; outer block 
   IBRION =     -1    ionic relax: 0-MD 1-quasi-New 2-CG
   NFREE  =      0    steps in history (QN), initial steepest desc. (CG)
   ISIF   =      2    stress and relaxation
   IWAVPR =     10    prediction:  0-non 1-charg 2-wave 3-comb
   ISYM   =      2    0-nonsym 1-usesym 2-fastsym
   LCORR  =      T    Harris-Foulkes like correction to forces

   POTIM  = 0.5000    time-step for ionic-motion
   TEIN   =    0.0    initial temperature
   TEBEG  =    0.0;   TEEND  =   0.0 temperature during run
   SMASS  =  -3.00    Nose mass-parameter (am)
   estimated Nose-frequenzy (Omega)   =  0.10E-29 period in steps =****** mass=  -0.702E-27a.u.
   SCALEE = 1.0000    scale energy and forces
   NPACO  =    256;   APACO  = 16.0  distance and # of slots for P.C.
   PSTRESS=    0.0 pullay stress

  Mass of Ions in am
   POMASS = 196.97192.22195.08
  Ionic Valenz
   ZVAL   =  11.00  9.00 10.00
  Atomic Wigner-Seitz radii
   RWIGS  =  -1.00 -1.00 -1.00
  virtual crystal weights 
   VCA    =   1.00  1.00  1.00
   NELECT =     160.0000    total number of electrons
   NUPDOWN=      -1.0000    fix difference up-down

 DOS related values:
   EMIN   =  10.00;   EMAX   =-10.00  energy-range for DOS
   EFERMI =   0.00
   ISMEAR =     1;   SIGMA  =   0.20  broadening in eV -4-tet -1-fermi 0-gaus

 Electronic relaxation 2 (details)
   IALGO  =     38    algorithm
   LDIAG  =      T    sub-space diagonalisation (order eigenvalues)
   LSUBROT=      F    optimize rotation matrix (better conditioning)
   TURBO    =      0    0=normal 1=particle mesh
   IRESTART =      0    0=no restart 2=restart with 2 vectors
   NREBOOT  =      0    no. of reboots
   NMIN     =      0    reboot dimension
   EREF     =   0.00    reference energy to select bands
   IMIX   =      4    mixing-type and parameters
     AMIX     =   0.40;   BMIX     =  1.00
     AMIX_MAG =   1.60;   BMIX_MAG =  1.00
     AMIN     =   0.10
     WC   =   100.;   INIMIX=   1;  MIXPRE=   1;  MAXMIX= -45

 Intra band minimization:
   WEIMIN = 0.0000     energy-eigenvalue tresh-hold
   EBREAK =  0.26E-07  absolut break condition
   DEPER  =   0.30     relativ break condition  

   TIME   =   0.40     timestep for ELM

  volume/ion in A,a.u.               =      44.56       300.73
  Fermi-wavevector in a.u.,A,eV,Ry     =   0.994829  1.879954 13.465469  0.989684
  Thomas-Fermi vector in A             =   2.126807
 
 Write flags
   LWAVE        =      F    write WAVECAR
   LDOWNSAMPLE  =      F    k-point downsampling of WAVECAR
   LCHARG       =      F    write CHGCAR
   LVTOT        =      F    write LOCPOT, total local potential
   LVHAR        =      F    write LOCPOT, Hartree potential only
   LELF         =      F    write electronic localiz. function (ELF)
   LORBIT       =      0    0 simple, 1 ext, 2 COOP (PROOUT), +10 PAW based schemes


 Dipole corrections
   LMONO  =      F    monopole corrections only (constant potential shift)
   LDIPOL =      F    correct potential (dipole corrections)
   IDIPOL =      3    1-x, 2-y, 3-z, 4-all directions 
   EPSILON=  1.0000000 bulk dielectric constant

 Exchange correlation treatment:
   GGA     =    --    GGA type
   LEXCH   =     8    internal setting for exchange type
   VOSKOWN=      0    Vosko Wilk Nusair interpolation
   LHFCALC =     F    Hartree Fock is set to
   LHFONE  =     F    Hartree Fock one center treatment
   AEXX    =    0.0000 exact exchange contribution

 Linear response parameters
   LEPSILON=     F    determine dielectric tensor
   LRPA    =     F    only Hartree local field effects (RPA)
   LNABLA  =     F    use nabla operator in PAW spheres
   LVEL    =     F    velocity operator in full k-point grid
   LINTERFAST=   F  fast interpolation
   KINTER  =     0    interpolate to denser k-point grid
   CSHIFT  =0.1000    complex shift for real part using Kramers Kronig
   OMEGAMAX=  -1.0    maximum frequency
   DEG_THRESHOLD= 0.2000000E-02 threshold for treating states as degnerate
   RTIME   =   -0.100 relaxation time in fs
  (WPLASMAI=    0.000 imaginary part of plasma frequency in eV, 0.658/RTIME)
   DFIELD  = 0.0000000 0.0000000 0.0000000 field for delta impulse in time
 
 Orbital magnetization related:
   ORBITALMAG=     F  switch on orbital magnetization
   LCHIMAG   =     F  perturbation theory with respect to B field
   DQ        =  0.001000  dq finite difference perturbation B field
   LLRAUG    =     F  two centre corrections for induced B field



--------------------------------------------------------------------------------------------------------


 Static calculation
 charge density and potential will be updated during run
 non-spin polarized calculation
 Variant of blocked Davidson
 Davidson routine will perform the subspace rotation
 perform sub-space diagonalisation
    after iterative eigenvector-optimisation
 modified Broyden-mixing scheme, WC =      100.0
 initial mixing is a Kerker type mixing with AMIX =  0.4000 and BMIX =      1.0000
 Hartree-type preconditioning will be used
 using additional bands           16
 real space projection scheme for non local part
 use partial core corrections
 calculate Harris-corrections to forces 
   (improved forces if not selfconsistent)
 use gradient corrections 
 use of overlap-Matrix (Vanderbilt PP)
 Methfessel and Paxton  Order N= 1 SIGMA  =   0.20


--------------------------------------------------------------------------------------------------------


  energy-cutoff  :      350.00
  volume of cell :      713.02
      direct lattice vectors                 reciprocal lattice vectors
     5.543717165  0.000000000  0.000000000     0.180384383 -0.104144972  0.000000000
     2.771858582  4.800999896  0.000000000     0.000000000  0.208289944  0.000000000
     0.000000000  0.000000000 26.789639166     0.000000000  0.000000000  0.037327864

  length of vectors
     5.543717165  5.543717165 26.789639166     0.208289944  0.208289944  0.037327864


 
 k-points in units of 2pi/SCALE and weight: 0.6.Ir1.Au9                             
   0.01127402  0.00650906  0.00000000       0.021
   0.00000000  0.01301812  0.00000000       0.010
   0.03382207 -0.00650906  0.00000000       0.021
   0.02254805  0.02603624  0.00000000       0.021
  -0.01127402  0.03254530  0.00000000       0.021
   0.05637012 -0.01952718  0.00000000       0.021
   0.04509610  0.03905436  0.00000000       0.021
  -0.01127402  0.05858155  0.00000000       0.021
   0.07891817 -0.03254530  0.00000000       0.021
   0.06764414  0.05207249  0.00000000       0.021
  -0.01127402  0.08461779  0.00000000       0.021
  -0.07891817  0.05858155  0.00000000       0.021
   0.09019219 -0.14319934  0.00000000       0.021
  -0.01127402  0.11065403  0.00000000       0.021
  -0.05637012  0.04556343  0.00000000       0.021
  -0.06764414 -0.02603624  0.00000000       0.021
  -0.01127402 -0.07159967  0.00000000       0.021
  -0.03382207  0.03254530  0.00000000       0.021
  -0.04509610 -0.01301812  0.00000000       0.021
  -0.01127402 -0.04556343  0.00000000       0.021
  -0.01127402  0.01952718  0.00000000       0.021
  -0.02254805  0.00000000  0.00000000       0.010
   0.03382207  0.01952718  0.00000000       0.021
   0.00000000  0.03905436  0.00000000       0.010
   0.05637012  0.00650906  0.00000000       0.021
   0.02254805  0.05207249  0.00000000       0.021
  -0.03382207  0.04556343  0.00000000       0.021
   0.07891817 -0.00650906  0.00000000       0.021
   0.04509610  0.06509061  0.00000000       0.021
  -0.03382207  0.07159967  0.00000000       0.021
  -0.07891817  0.08461779  0.00000000       0.021
   0.06764414 -0.13018122  0.00000000       0.021
  -0.03382207  0.09763591  0.00000000       0.021
  -0.05637012  0.07159967  0.00000000       0.021
   0.09019219 -0.11716309  0.00000000       0.021
  -0.03382207  0.12367215  0.00000000       0.021
  -0.03382207  0.05858155  0.00000000       0.021
  -0.06764414  0.00000000  0.00000000       0.010
   0.05637012  0.03254530  0.00000000       0.021
   0.00000000  0.06509061  0.00000000       0.010
   0.07891817  0.01952718  0.00000000       0.021
   0.02254805  0.07810873  0.00000000       0.021
  -0.05637012  0.05858155  0.00000000       0.021
  -0.07891817  0.11065403  0.00000000       0.021
   0.04509610 -0.11716309  0.00000000       0.021
  -0.05637012  0.08461779  0.00000000       0.021
  -0.05637012  0.09763591  0.00000000       0.021
   0.06764414 -0.10414497  0.00000000       0.010
   0.07891817  0.04556343  0.00000000       0.021
   0.00000000  0.09112685  0.00000000       0.010
  -0.07891817  0.13669028  0.00000000       0.021
   0.02254805 -0.10414497  0.00000000       0.010
 
 k-points in reciprocal lattice and weights: 0.6.Ir1.Au9                             
   0.06250000  0.06250000  0.00000000       0.021
   0.00000000  0.06250000  0.00000000       0.010
   0.18750000  0.06250000  0.00000000       0.021
   0.12500000  0.18750000  0.00000000       0.021
  -0.06250000  0.12500000  0.00000000       0.021
   0.31250000  0.06250000  0.00000000       0.021
   0.25000000  0.31250000  0.00000000       0.021
  -0.06250000  0.25000000  0.00000000       0.021
   0.43750000  0.06250000  0.00000000       0.021
   0.37500000  0.43750000  0.00000000       0.021
  -0.06250000  0.37500000  0.00000000       0.021
  -0.43750000  0.06250000  0.00000000       0.021
   0.50000000 -0.43750000  0.00000000       0.021
  -0.06250000  0.50000000  0.00000000       0.021
  -0.31250000  0.06250000  0.00000000       0.021
  -0.37500000 -0.31250000  0.00000000       0.021
  -0.06250000 -0.37500000  0.00000000       0.021
  -0.18750000  0.06250000  0.00000000       0.021
  -0.25000000 -0.18750000  0.00000000       0.021
  -0.06250000 -0.25000000  0.00000000       0.021
  -0.06250000  0.06250000  0.00000000       0.021
  -0.12500000 -0.06250000  0.00000000       0.010
   0.18750000  0.18750000  0.00000000       0.021
   0.00000000  0.18750000  0.00000000       0.010
   0.31250000  0.18750000  0.00000000       0.021
   0.12500000  0.31250000  0.00000000       0.021
  -0.18750000  0.12500000  0.00000000       0.021
   0.43750000  0.18750000  0.00000000       0.021
   0.25000000  0.43750000  0.00000000       0.021
  -0.18750000  0.25000000  0.00000000       0.021
  -0.43750000  0.18750000  0.00000000       0.021
   0.37500000 -0.43750000  0.00000000       0.021
  -0.18750000  0.37500000  0.00000000       0.021
  -0.31250000  0.18750000  0.00000000       0.021
   0.50000000 -0.31250000  0.00000000       0.021
  -0.18750000  0.50000000  0.00000000       0.021
  -0.18750000  0.18750000  0.00000000       0.021
  -0.37500000 -0.18750000  0.00000000       0.010
   0.31250000  0.31250000  0.00000000       0.021
   0.00000000  0.31250000  0.00000000       0.010
   0.43750000  0.31250000  0.00000000       0.021
   0.12500000  0.43750000  0.00000000       0.021
  -0.31250000  0.12500000  0.00000000       0.021
  -0.43750000  0.31250000  0.00000000       0.021
   0.25000000 -0.43750000  0.00000000       0.021
  -0.31250000  0.25000000  0.00000000       0.021
  -0.31250000  0.31250000  0.00000000       0.021
   0.37500000 -0.31250000  0.00000000       0.010
   0.43750000  0.43750000  0.00000000       0.021
   0.00000000  0.43750000  0.00000000       0.010
  -0.43750000  0.43750000  0.00000000       0.021
   0.12500000 -0.43750000  0.00000000       0.010
 
 position of ions in fractional coordinates (direct lattice) 
   0.33333333  0.33333333  0.54381573
   0.50000000  0.00000000  0.37327864
   0.00000000  0.00000000  0.37327864
   0.00000000  0.50000000  0.37327864
   0.50000000  0.50000000  0.37327864
   0.16666667  0.16666667  0.45775955
   0.66666667  0.16666667  0.45775955
   0.16666667  0.66666667  0.45775955
   0.66666667  0.66666667  0.45775955
   0.83333333  0.33333333  0.54381573
   0.83333333  0.83333333  0.54381573
   0.33333333  0.83333333  0.54381573
   0.00000000  0.00000000  0.63112717
   0.50000000  0.00000000  0.63112717
   0.00000000  0.50000000  0.63112717
   0.50000000  0.50000000  0.63112717
 
 position of ions in cartesian coordinates  (Angst):
   2.77185858  1.60033330 14.56862716
   2.77185858  0.00000000 10.00000000
   0.00000000  0.00000000 10.00000000
   1.38592929  2.40049995 10.00000000
   4.15778787  2.40049995 10.00000000
   1.38592929  0.80016665 12.26321306
   4.15778787  0.80016665 12.26321306
   2.77185858  3.20066660 12.26321306
   5.54371716  3.20066660 12.26321306
   5.54371716  1.60033330 14.56862716
   6.92964646  4.00083325 14.56862716
   4.15778787  4.00083325 14.56862716
   0.00000000  0.00000000 16.90766902
   2.77185858  0.00000000 16.90766902
   1.38592929  2.40049995 16.90766902
   4.15778787  2.40049995 16.90766902
 


--------------------------------------------------------------------------------------------------------


 k-point  1 :   0.0625 0.0625 0.0000  plane waves:   10681
 k-point  2 :   0.0000 0.0625 0.0000  plane waves:   10681
 k-point  3 :   0.1875 0.0625 0.0000  plane waves:   10654
 k-point  4 :   0.1250 0.1875 0.0000  plane waves:   10654
 k-point  5 :  -0.0625 0.1250 0.0000  plane waves:   10654
 k-point  6 :   0.3125 0.0625 0.0000  plane waves:   10616
 k-point  7 :   0.2500 0.3125 0.0000  plane waves:   10616
 k-point  8 :  -0.0625 0.2500 0.0000  plane waves:   10616
 k-point  9 :   0.4375 0.0625 0.0000  plane waves:   10577
 k-point 10 :   0.3750 0.4375 0.0000  plane waves:   10577
 k-point 11 :  -0.0625 0.3750 0.0000  plane waves:   10577
 k-point 12 :  -0.4375 0.0625 0.0000  plane waves:   10551
 k-point 13 :   0.5000-0.4375 0.0000  plane waves:   10551
 k-point 14 :  -0.0625 0.5000 0.0000  plane waves:   10551
 k-point 15 :  -0.3125 0.0625 0.0000  plane waves:   10587
 k-point 16 :  -0.3750-0.3125 0.0000  plane waves:   10587
 k-point 17 :  -0.0625-0.3750 0.0000  plane waves:   10587
 k-point 18 :  -0.1875 0.0625 0.0000  plane waves:   10616
 k-point 19 :  -0.2500-0.1875 0.0000  plane waves:   10616
 k-point 20 :  -0.0625-0.2500 0.0000  plane waves:   10616
 k-point 21 :  -0.0625 0.0625 0.0000  plane waves:   10677
 k-point 22 :  -0.1250-0.0625 0.0000  plane waves:   10677
 k-point 23 :   0.1875 0.1875 0.0000  plane waves:   10631
 k-point 24 :   0.0000 0.1875 0.0000  plane waves:   10631
 k-point 25 :   0.3125 0.1875 0.0000  plane waves:   10620
 k-point 26 :   0.1250 0.3125 0.0000  plane waves:   10620
 k-point 27 :  -0.1875 0.1250 0.0000  plane waves:   10620
 k-point 28 :   0.4375 0.1875 0.0000  plane waves:   10599
 k-point 29 :   0.2500 0.4375 0.0000  plane waves:   10599
 k-point 30 :  -0.1875 0.2500 0.0000  plane waves:   10599
 k-point 31 :  -0.4375 0.1875 0.0000  plane waves:   10577
 k-point 32 :   0.3750-0.4375 0.0000  plane waves:   10577
 k-point 33 :  -0.1875 0.3750 0.0000  plane waves:   10577
 k-point 34 :  -0.3125 0.1875 0.0000  plane waves:   10577
 k-point 35 :   0.5000-0.3125 0.0000  plane waves:   10577
 k-point 36 :  -0.1875 0.5000 0.0000  plane waves:   10577
 k-point 37 :  -0.1875 0.1875 0.0000  plane waves:   10613
 k-point 38 :  -0.3750-0.1875 0.0000  plane waves:   10613
 k-point 39 :   0.3125 0.3125 0.0000  plane waves:   10603
 k-point 40 :   0.0000 0.3125 0.0000  plane waves:   10603
 k-point 41 :   0.4375 0.3125 0.0000  plane waves:   10605
 k-point 42 :   0.1250 0.4375 0.0000  plane waves:   10605
 k-point 43 :  -0.3125 0.1250 0.0000  plane waves:   10605
 k-point 44 :  -0.4375 0.3125 0.0000  plane waves:   10593
 k-point 45 :   0.2500-0.4375 0.0000  plane waves:   10593
 k-point 46 :  -0.3125 0.2500 0.0000  plane waves:   10593
 k-point 47 :  -0.3125 0.3125 0.0000  plane waves:   10592
 k-point 48 :   0.3750-0.3125 0.0000  plane waves:   10592
 k-point 49 :   0.4375 0.4375 0.0000  plane waves:   10562
 k-point 50 :   0.0000 0.4375 0.0000  plane waves:   10562
 k-point 51 :  -0.4375 0.4375 0.0000  plane waves:   10550
 k-point 52 :   0.1250-0.4375 0.0000  plane waves:   10550

 maximum and minimum number of plane-waves per node :      2689     2616

 maximum number of plane-waves:     10681
 maximum index in each direction: 
   IXMAX=    8   IYMAX=    8   IZMAX=   40
   IXMIN=   -8   IYMIN=   -8   IZMIN=  -40


 real space projection operators:
  total allocation   :       4856.06 KBytes
  max/ min on nodes  :       1216.41       1211.62


 parallel 3D FFT for wavefunctions:
    minimum data exchange during FFTs selected (reduces bandwidth)
 parallel 3D FFT for charge:
    minimum data exchange during FFTs selected (reduces bandwidth)


 total amount of memory used by VASP MPI-rank0    94183. kBytes
=======================================================================

   base      :      30000. kBytes
   nonlr-proj:       2110. kBytes
   fftplans  :       2594. kBytes
   grid      :       4625. kBytes
   one-center:         62. kBytes
   wavefun   :      54792. kBytes
 
     INWAV:  cpu time    0.0000: real time    0.0000
 Broyden mixing: mesh for mixing (old mesh)
   NGX = 17   NGY = 17   NGZ = 81
  (NGX  = 56   NGY  = 56   NGZ  =252)
  gives a total of  23409 points

 initial charge density was supplied:
 charge density of overlapping atoms calculated
 number of electron     160.0000000 magnetization 
 keeping initial charge density in first step


--------------------------------------------------------------------------------------------------------


 Maximum index for non-local projection operator          548
 Maximum index for augmentation-charges          730 (set IRDMAX)


--------------------------------------------------------------------------------------------------------


 First call to EWALD:  gamma=   0.198
 Maximum number of real-space cells 5x 5x 1
 Maximum number of reciprocal cells 2x 2x 7

    FEWALD:  cpu time    0.0013: real time    0.0013


--------------------------------------- Iteration      1(   1)  ---------------------------------------


    POTLOK:  cpu time    0.0222: real time    0.0292
    SETDIJ:  cpu time    0.0025: real time    0.0025
     EDDAV:  cpu time    6.2353: real time    6.2370
       DOS:  cpu time    0.0043: real time    0.0043
    --------------------------------------------
      LOOP:  cpu time    6.2643: real time    6.2730

 eigenvalue-minimisations  : 10024
 total energy-change (2. order) : 0.9774289E+03  (-0.5660867E+04)
 number of electron     160.0000000 magnetization 
 augmentation part      160.0000000 magnetization 

 Free energy of the ion-electron system (eV)
  ---------------------------------------------------
  alpha Z        PSCENC =       350.82459594
  Ewald energy   TEWEN  =     73410.14867536
  -Hartree energ DENC   =    -85645.21993191
  -exchange      EXHF   =         0.00000000
  -V(xc)+E(xc)   XCENC  =        46.80786893
  PAW double counting   =     11171.21661038   -10711.84633960
  entropy T*S    EENTRO =         0.01278116
  eigenvalues    EBANDS =       661.79039717
  atomic energy  EATOM  =     11693.69420960
  Solvation  Ediel_sol  =         0.00000000
  ---------------------------------------------------
  free energy    TOTEN  =       977.42886704 eV

  energy without entropy =      977.41608588  energy(sigma->0) =      977.42460666


--------------------------------------------------------------------------------------------------------




--------------------------------------- Iteration      1(   2)  ---------------------------------------


     EDDAV:  cpu time    7.2982: real time    7.3011
       DOS:  cpu time    0.0053: real time    0.0053
    --------------------------------------------
      LOOP:  cpu time    7.3035: real time    7.3064

 eigenvalue-minimisations  : 12304
 total energy-change (2. order) :-0.9957336E+03  (-0.9150696E+03)
 number of electron     160.0000000 magnetization 
 augmentation part      160.0000000 magnetization 

 Free energy of the ion-electron system (eV)
  ---------------------------------------------------
  alpha Z        PSCENC =       350.82459594
  Ewald energy   TEWEN  =     73410.14867536
  -Hartree energ DENC   =    -85645.21993191
  -exchange      EXHF   =         0.00000000
  -V(xc)+E(xc)   XCENC  =        46.80786893
  PAW double counting   =     11171.21661038   -10711.84633960
  entropy T*S    EENTRO =        -0.00000390
  eigenvalues    EBANDS =      -333.93041597
  atomic energy  EATOM  =     11693.69420960
  Solvation  Ediel_sol  =         0.00000000
  ---------------------------------------------------
  free energy    TOTEN  =       -18.30473115 eV

  energy without entropy =      -18.30472726  energy(sigma->0) =      -18.30472986


--------------------------------------------------------------------------------------------------------




--------------------------------------- Iteration      1(   3)  ---------------------------------------


     EDDAV:  cpu time    7.1185: real time    7.1202
       DOS:  cpu time    0.0054: real time    0.0054
    --------------------------------------------
      LOOP:  cpu time    7.1240: real time    7.1256

 eigenvalue-minimisations  : 11904
 total energy-change (2. order) :-0.7645755E+02  (-0.6897849E+02)
 number of electron     160.0000000 magnetization 
 augmentation part      160.0000000 magnetization 

 Free energy of the ion-electron system (eV)
  ---------------------------------------------------
  alpha Z        PSCENC =       350.82459594
  Ewald energy   TEWEN  =     73410.14867536
  -Hartree energ DENC   =    -85645.21993191
  -exchange      EXHF   =         0.00000000
  -V(xc)+E(xc)   XCENC  =        46.80786893
  PAW double counting   =     11171.21661038   -10711.84633960
  entropy T*S    EENTRO =        -0.00628207
  eigenvalues    EBANDS =      -410.38168517
  atomic energy  EATOM  =     11693.69420960
  Solvation  Ediel_sol  =         0.00000000
  ---------------------------------------------------
  free energy    TOTEN  =       -94.76227854 eV

  energy without entropy =      -94.75599646  energy(sigma->0) =      -94.76018451


--------------------------------------------------------------------------------------------------------




--------------------------------------- Iteration      1(   4)  ---------------------------------------


     EDDAV:  cpu time    7.9423: real time    7.9427
       DOS:  cpu time    0.0053: real time    0.0053
    --------------------------------------------
      LOOP:  cpu time    7.9476: real time    7.9480

 eigenvalue-minimisations  : 13656
 total energy-change (2. order) :-0.3233232E+01  (-0.3101896E+01)
 number of electron     160.0000000 magnetization 
 augmentation part      160.0000000 magnetization 

 Free energy of the ion-electron system (eV)
  ---------------------------------------------------
  alpha Z        PSCENC =       350.82459594
  Ewald energy   TEWEN  =     73410.14867536
  -Hartree energ DENC   =    -85645.21993191
  -exchange      EXHF   =         0.00000000
  -V(xc)+E(xc)   XCENC  =        46.80786893
  PAW double counting   =     11171.21661038   -10711.84633960
  entropy T*S    EENTRO =        -0.00475666
  eigenvalues    EBANDS =      -413.61644259
  atomic energy  EATOM  =     11693.69420960
  Solvation  Ediel_sol  =         0.00000000
  ---------------------------------------------------
  free energy    TOTEN  =       -97.99551054 eV

  energy without entropy =      -97.99075388  energy(sigma->0) =      -97.99392499


--------------------------------------------------------------------------------------------------------




--------------------------------------- Iteration      1(   5)  ---------------------------------------


     EDDAV:  cpu time    7.6022: real time    7.6041
       DOS:  cpu time    0.0056: real time    0.0056
    CHARGE:  cpu time    0.3418: real time    0.3418
    MIXING:  cpu time    0.0011: real time    0.0011
    --------------------------------------------
      LOOP:  cpu time    7.9506: real time    7.9526

 eigenvalue-minimisations  : 12912
 total energy-change (2. order) :-0.7937496E-01  (-0.7910598E-01)
 number of electron     160.0000122 magnetization 
 augmentation part       46.9867929 magnetization 

 Broyden mixing:
  rms(total) = 0.42939E+01    rms(broyden)= 0.42938E+01
  rms(prec ) = 0.43351E+01
  weight for this iteration     100.00

 Free energy of the ion-electron system (eV)
  ---------------------------------------------------
  alpha Z        PSCENC =       350.82459594
  Ewald energy   TEWEN  =     73410.14867536
  -Hartree energ DENC   =    -85645.21993191
  -exchange      EXHF   =         0.00000000
  -V(xc)+E(xc)   XCENC  =        46.80786893
  PAW double counting   =     11171.21661038   -10711.84633960
  entropy T*S    EENTRO =        -0.00462271
  eigenvalues    EBANDS =      -413.69595150
  atomic energy  EATOM  =     11693.69420960
  Solvation  Ediel_sol  =         0.00000000
  ---------------------------------------------------
  free energy    TOTEN  =       -98.07488550 eV

  energy without entropy =      -98.07026279  energy(sigma->0) =      -98.07334460


--------------------------------------------------------------------------------------------------------




--------------------------------------- Iteration      1(   6)  ---------------------------------------


    POTLOK:  cpu time    0.0197: real time    0.0200
    SETDIJ:  cpu time    0.0025: real time    0.0025
     EDDAV:  cpu time    7.0845: real time    7.0846
       DOS:  cpu time    0.0056: real time    0.0056
    CHARGE:  cpu time    0.3400: real time    0.3400
    MIXING:  cpu time    0.0010: real time    0.0010
    --------------------------------------------
      LOOP:  cpu time    7.4532: real time    7.4536

 eigenvalue-minimisations  : 11824
 total energy-change (2. order) : 0.1218451E+01  (-0.2197785E+01)
 number of electron     160.0000106 magnetization 
 augmentation part       49.4750605 magnetization 

 Broyden mixing:
  rms(total) = 0.37139E+01    rms(broyden)= 0.37138E+01
  rms(prec ) = 0.42744E+01
  weight for this iteration     100.00

 eigenvalues of (default mixing * dielectric matrix)
  average eigenvalue GAMMA=   0.8586
  0.8586

 Free energy of the ion-electron system (eV)
  ---------------------------------------------------
  alpha Z        PSCENC =       350.82459594
  Ewald energy   TEWEN  =     73410.14867536
  -Hartree energ DENC   =    -85452.86584410
  -exchange      EXHF   =         0.00000000
  -V(xc)+E(xc)   XCENC  =        42.71371464
  PAW double counting   =     12376.80658082   -11940.95045519
  entropy T*S    EENTRO =         0.00658191
  eigenvalues    EBANDS =      -577.23449396
  atomic energy  EATOM  =     11693.69420960
  Solvation  Ediel_sol  =         0.00000000
  ---------------------------------------------------
  free energy    TOTEN  =       -96.85643497 eV

  energy without entropy =      -96.86301688  energy(sigma->0) =      -96.85862894


--------------------------------------------------------------------------------------------------------




--------------------------------------- Iteration      1(   7)  ---------------------------------------


    POTLOK:  cpu time    0.0185: real time    0.0185
    SETDIJ:  cpu time    0.0024: real time    0.0024
     EDDAV:  cpu time    8.8665: real time    8.8679
       DOS:  cpu time    0.0053: real time    0.0053
    CHARGE:  cpu time    0.3418: real time    0.3418
    MIXING:  cpu time    0.0011: real time    0.0011
    --------------------------------------------
      LOOP:  cpu time    9.2356: real time    9.2370

 eigenvalue-minimisations  : 15536
 total energy-change (2. order) :-0.4098155E+02  (-0.8692581E+01)
 number of electron     160.0000128 magnetization 
 augmentation part       48.0973048 magnetization 

 Broyden mixing:
  rms(total) = 0.53897E+01    rms(broyden)= 0.53896E+01
  rms(prec ) = 0.71829E+01
  weight for this iteration     100.00

 eigenvalues of (default mixing * dielectric matrix)
  average eigenvalue GAMMA=   0.9143
  1.6787  0.1498

 Free energy of the ion-electron system (eV)
  ---------------------------------------------------
  alpha Z        PSCENC =       350.82459594
  Ewald energy   TEWEN  =     73410.14867536
  -Hartree energ DENC   =    -85526.35254541
  -exchange      EXHF   =         0.00000000
  -V(xc)+E(xc)   XCENC  =        41.96799874
  PAW double counting   =     12819.84185665   -12389.38939623
  entropy T*S    EENTRO =        -0.01062202
  eigenvalues    EBANDS =      -538.56275984
  atomic energy  EATOM  =     11693.69420960
  Solvation  Ediel_sol  =         0.00000000
  ---------------------------------------------------
  free energy    TOTEN  =      -137.83798721 eV

  energy without entropy =     -137.82736519  energy(sigma->0) =     -137.83444653


--------------------------------------------------------------------------------------------------------




--------------------------------------- Iteration      1(   8)  ---------------------------------------


    POTLOK:  cpu time    0.0187: real time    0.0190
    SETDIJ:  cpu time    0.0024: real time    0.0024
     EDDAV:  cpu time    8.1732: real time    8.1733
       DOS:  cpu time    0.0055: real time    0.0055
    CHARGE:  cpu time    0.3403: real time    0.3403
    MIXING:  cpu time    0.0012: real time    0.0012
    --------------------------------------------
      LOOP:  cpu time    8.5413: real time    8.5417

 eigenvalue-minimisations  : 14072
 total energy-change (2. order) : 0.1400415E+02  (-0.5972742E+01)
 number of electron     160.0000156 magnetization 
 augmentation part       48.9164597 magnetization 

 Broyden mixing:
  rms(total) = 0.45491E+01    rms(broyden)= 0.45490E+01
  rms(prec ) = 0.52801E+01
  weight for this iteration     100.00

 eigenvalues of (default mixing * dielectric matrix)
  average eigenvalue GAMMA=   0.8575
  2.1624  0.2051  0.2051

 Free energy of the ion-electron system (eV)
  ---------------------------------------------------
  alpha Z        PSCENC =       350.82459594
  Ewald energy   TEWEN  =     73410.14867536
  -Hartree energ DENC   =    -85596.49850427
  -exchange      EXHF   =         0.00000000
  -V(xc)+E(xc)   XCENC  =        40.75789038
  PAW double counting   =     13732.81425759   -13313.77565281
  entropy T*S    EENTRO =        -0.00375478
  eigenvalues    EBANDS =      -441.79555803
  atomic energy  EATOM  =     11693.69420960
  Solvation  Ediel_sol  =         0.00000000
  ---------------------------------------------------
  free energy    TOTEN  =      -123.83384102 eV

  energy without entropy =     -123.83008624  energy(sigma->0) =     -123.83258943


--------------------------------------------------------------------------------------------------------




--------------------------------------- Iteration      1(   9)  ---------------------------------------


    POTLOK:  cpu time    0.0189: real time    0.0243
    SETDIJ:  cpu time    0.0024: real time    0.0024
     EDDAV:  cpu time    9.3827: real time    9.3829
       DOS:  cpu time    0.0057: real time    0.0057
    CHARGE:  cpu time    0.3404: real time    0.3404
    MIXING:  cpu time    0.0010: real time    0.0010
    --------------------------------------------
      LOOP:  cpu time    9.7511: real time    9.7568

 eigenvalue-minimisations  : 16600
 total energy-change (2. order) : 0.1503335E+02  (-0.3814153E+01)
 number of electron     160.0000135 magnetization 
 augmentation part       50.1675144 magnetization 

 Broyden mixing:
  rms(total) = 0.29972E+01    rms(broyden)= 0.29971E+01
  rms(prec ) = 0.42518E+01
  weight for this iteration     100.00

 eigenvalues of (default mixing * dielectric matrix)
  average eigenvalue GAMMA=   0.8326
  2.0808  0.8145  0.2836  0.1514

 Free energy of the ion-electron system (eV)
  ---------------------------------------------------
  alpha Z        PSCENC =       350.82459594
  Ewald energy   TEWEN  =     73410.14867536
  -Hartree energ DENC   =    -85425.86052849
  -exchange      EXHF   =         0.00000000
  -V(xc)+E(xc)   XCENC  =        39.92653392
  PAW double counting   =     14434.80714714   -14024.66230256
  entropy T*S    EENTRO =        -0.00600689
  eigenvalues    EBANDS =      -587.67281102
  atomic energy  EATOM  =     11693.69420960
  Solvation  Ediel_sol  =         0.00000000
  ---------------------------------------------------
  free energy    TOTEN  =      -108.80048700 eV

  energy without entropy =     -108.79448011  energy(sigma->0) =     -108.79848470


--------------------------------------------------------------------------------------------------------




--------------------------------------- Iteration      1(  10)  ---------------------------------------


    POTLOK:  cpu time    0.0185: real time    0.0203
    SETDIJ:  cpu time    0.0024: real time    0.0024
     EDDAV:  cpu time    8.1229: real time    8.1230
       DOS:  cpu time    0.0055: real time    0.0055
    CHARGE:  cpu time    0.3533: real time    0.3533
    MIXING:  cpu time    0.0010: real time    0.0010
    --------------------------------------------
      LOOP:  cpu time    8.5037: real time    8.5057

 eigenvalue-minimisations  : 13992
 total energy-change (2. order) : 0.1149702E+02  (-0.2977293E+01)
 number of electron     160.0000123 magnetization 
 augmentation part       50.4207530 magnetization 

 Broyden mixing:
  rms(total) = 0.21332E+01    rms(broyden)= 0.21331E+01
  rms(prec ) = 0.26690E+01
  weight for this iteration     100.00

 eigenvalues of (default mixing * dielectric matrix)
  average eigenvalue GAMMA=   0.7214
  2.0059  0.9477  0.1558  0.2815  0.2161

 Free energy of the ion-electron system (eV)
  ---------------------------------------------------
  alpha Z        PSCENC =       350.82459594
  Ewald energy   TEWEN  =     73410.14867536
  -Hartree energ DENC   =    -85447.77022928
  -exchange      EXHF   =         0.00000000
  -V(xc)+E(xc)   XCENC  =        40.88304185
  PAW double counting   =     14565.45863945   -14152.87646210
  entropy T*S    EENTRO =        -0.00546580
  eigenvalues    EBANDS =      -557.66046939
  atomic energy  EATOM  =     11693.69420960
  Solvation  Ediel_sol  =         0.00000000
  ---------------------------------------------------
  free energy    TOTEN  =       -97.30346439 eV

  energy without entropy =      -97.29799858  energy(sigma->0) =      -97.30164245


--------------------------------------------------------------------------------------------------------




--------------------------------------- Iteration      1(  11)  ---------------------------------------


    POTLOK:  cpu time    0.0183: real time    0.0183
    SETDIJ:  cpu time    0.0024: real time    0.0024
     EDDAV:  cpu time    8.3722: real time    8.3731
       DOS:  cpu time    0.0058: real time    0.0058
    CHARGE:  cpu time    0.3604: real time    0.3604
    MIXING:  cpu time    0.0012: real time    0.0012
    --------------------------------------------
      LOOP:  cpu time    8.7603: real time    8.7612

 eigenvalue-minimisations  : 14464
 total energy-change (2. order) : 0.4968252E+01  (-0.1747430E+01)
 number of electron     160.0000123 magnetization 
 augmentation part       50.1778551 magnetization 

 Broyden mixing:
  rms(total) = 0.96323E+00    rms(broyden)= 0.96303E+00
  rms(prec ) = 0.11464E+01
  weight for this iteration     100.00

 eigenvalues of (default mixing * dielectric matrix)
  average eigenvalue GAMMA=   0.6853
  2.0611  0.6794  0.6794  0.3294  0.1605  0.2023

 Free energy of the ion-electron system (eV)
  ---------------------------------------------------
  alpha Z        PSCENC =       350.82459594
  Ewald energy   TEWEN  =     73410.14867536
  -Hartree energ DENC   =    -85452.60511112
  -exchange      EXHF   =         0.00000000
  -V(xc)+E(xc)   XCENC  =        40.95133727
  PAW double counting   =     14580.32700542   -14167.01464759
  entropy T*S    EENTRO =        -0.03384714
  eigenvalues    EBANDS =      -548.62743029
  atomic energy  EATOM  =     11693.69420960
  Solvation  Ediel_sol  =         0.00000000
  ---------------------------------------------------
  free energy    TOTEN  =       -92.33521255 eV

  energy without entropy =      -92.30136541  energy(sigma->0) =      -92.32393017


--------------------------------------------------------------------------------------------------------




--------------------------------------- Iteration      1(  12)  ---------------------------------------


    POTLOK:  cpu time    0.0193: real time    0.0194
    SETDIJ:  cpu time    0.0024: real time    0.0024
     EDDAV:  cpu time    8.1690: real time    8.1691
       DOS:  cpu time    0.0056: real time    0.0056
    CHARGE:  cpu time    0.3658: real time    0.3659
    MIXING:  cpu time    0.0014: real time    0.0014
    --------------------------------------------
      LOOP:  cpu time    8.5636: real time    8.5639

 eigenvalue-minimisations  : 14064
 total energy-change (2. order) : 0.3758087E+00  (-0.2565531E+00)
 number of electron     160.0000127 magnetization 
 augmentation part       50.1813084 magnetization 

 Broyden mixing:
  rms(total) = 0.61374E+00    rms(broyden)= 0.61371E+00
  rms(prec ) = 0.63049E+00
  weight for this iteration     100.00

 eigenvalues of (default mixing * dielectric matrix)
  average eigenvalue GAMMA=   0.6351
  2.0668  0.7093  0.7093  0.1588  0.2881  0.2881  0.2253

 Free energy of the ion-electron system (eV)
  ---------------------------------------------------
  alpha Z        PSCENC =       350.82459594
  Ewald energy   TEWEN  =     73410.14867536
  -Hartree energ DENC   =    -85448.75618860
  -exchange      EXHF   =         0.00000000
  -V(xc)+E(xc)   XCENC  =        40.85136264
  PAW double counting   =     14577.35933614   -14164.55280438
  entropy T*S    EENTRO =        -0.00356511
  eigenvalues    EBANDS =      -551.52502545
  atomic energy  EATOM  =     11693.69420960
  Solvation  Ediel_sol  =         0.00000000
  ---------------------------------------------------
  free energy    TOTEN  =       -91.95940385 eV

  energy without entropy =      -91.95583874  energy(sigma->0) =      -91.95821548


--------------------------------------------------------------------------------------------------------




--------------------------------------- Iteration      1(  13)  ---------------------------------------


    POTLOK:  cpu time    0.0192: real time    0.0192
    SETDIJ:  cpu time    0.0023: real time    0.0023
     EDDAV:  cpu time    7.6146: real time    7.6148
       DOS:  cpu time    0.0058: real time    0.0058
    CHARGE:  cpu time    0.3642: real time    0.3642
    MIXING:  cpu time    0.0013: real time    0.0013
    --------------------------------------------
      LOOP:  cpu time    8.0073: real time    8.0076

 eigenvalue-minimisations  : 12888
 total energy-change (2. order) : 0.6688259E-01  (-0.4151438E-01)
 number of electron     160.0000126 magnetization 
 augmentation part       50.1855421 magnetization 

 Broyden mixing:
  rms(total) = 0.46033E+00    rms(broyden)= 0.46032E+00
  rms(prec ) = 0.48912E+00
  weight for this iteration     100.00

 eigenvalues of (default mixing * dielectric matrix)
  average eigenvalue GAMMA=   0.6888
  2.0407  0.9871  0.9871  0.4073  0.4073  0.3190  0.1597  0.2017

 Free energy of the ion-electron system (eV)
  ---------------------------------------------------
  alpha Z        PSCENC =       350.82459594
  Ewald energy   TEWEN  =     73410.14867536
  -Hartree energ DENC   =    -85447.42538703
  -exchange      EXHF   =         0.00000000
  -V(xc)+E(xc)   XCENC  =        40.85530952
  PAW double counting   =     14540.74019650   -14127.86123421
  entropy T*S    EENTRO =        -0.01000432
  eigenvalues    EBANDS =      -552.85888264
  atomic energy  EATOM  =     11693.69420960
  Solvation  Ediel_sol  =         0.00000000
  ---------------------------------------------------
  free energy    TOTEN  =       -91.89252126 eV

  energy without entropy =      -91.88251695  energy(sigma->0) =      -91.88918649


--------------------------------------------------------------------------------------------------------




--------------------------------------- Iteration      1(  14)  ---------------------------------------


    POTLOK:  cpu time    0.0185: real time    0.0185
    SETDIJ:  cpu time    0.0023: real time    0.0023
     EDDAV:  cpu time    6.8414: real time    6.8415
       DOS:  cpu time    0.0058: real time    0.0058
    CHARGE:  cpu time    0.3671: real time    0.3671
    MIXING:  cpu time    0.0013: real time    0.0013
    --------------------------------------------
      LOOP:  cpu time    7.2363: real time    7.2365

 eigenvalue-minimisations  : 11240
 total energy-change (2. order) : 0.2487251E-01  (-0.1812620E-01)
 number of electron     160.0000124 magnetization 
 augmentation part       50.1777827 magnetization 

 Broyden mixing:
  rms(total) = 0.40242E+00    rms(broyden)= 0.40241E+00
  rms(prec ) = 0.41451E+00
  weight for this iteration     100.00

 eigenvalues of (default mixing * dielectric matrix)
  average eigenvalue GAMMA=   0.7808
  2.1122  1.4211  1.4211  0.6397  0.3878  0.3878  0.1595  0.2900  0.2075

 Free energy of the ion-electron system (eV)
  ---------------------------------------------------
  alpha Z        PSCENC =       350.82459594
  Ewald energy   TEWEN  =     73410.14867536
  -Hartree energ DENC   =    -85447.80593551
  -exchange      EXHF   =         0.00000000
  -V(xc)+E(xc)   XCENC  =        40.93269618
  PAW double counting   =     14442.49855190   -14029.20387057
  entropy T*S    EENTRO =        -0.01004912
  eigenvalues    EBANDS =      -552.94652254
  atomic energy  EATOM  =     11693.69420960
  Solvation  Ediel_sol  =         0.00000000
  ---------------------------------------------------
  free energy    TOTEN  =       -91.86764875 eV

  energy without entropy =      -91.85759963  energy(sigma->0) =      -91.86429904


--------------------------------------------------------------------------------------------------------




--------------------------------------- Iteration      1(  15)  ---------------------------------------


    POTLOK:  cpu time    0.0187: real time    0.0187
    SETDIJ:  cpu time    0.0024: real time    0.0024
     EDDAV:  cpu time    7.3885: real time    7.3886
       DOS:  cpu time    0.0058: real time    0.0058
    CHARGE:  cpu time    0.3600: real time    0.3600
    MIXING:  cpu time    0.0015: real time    0.0015
    --------------------------------------------
      LOOP:  cpu time    7.7769: real time    7.7770

 eigenvalue-minimisations  : 12400
 total energy-change (2. order) :-0.7309892E-01  (-0.3017776E-01)
 number of electron     160.0000123 magnetization 
 augmentation part       50.1215322 magnetization 

 Broyden mixing:
  rms(total) = 0.39592E+00    rms(broyden)= 0.39590E+00
  rms(prec ) = 0.55521E+00
  weight for this iteration     100.00

 eigenvalues of (default mixing * dielectric matrix)
  average eigenvalue GAMMA=   0.7909
  2.1637  1.3905  1.3905  1.0521  0.4481  0.4481  0.1595  0.2059  0.3427  0.3074

 Free energy of the ion-electron system (eV)
  ---------------------------------------------------
  alpha Z        PSCENC =       350.82459594
  Ewald energy   TEWEN  =     73410.14867536
  -Hartree energ DENC   =    -85456.43148891
  -exchange      EXHF   =         0.00000000
  -V(xc)+E(xc)   XCENC  =        41.08626379
  PAW double counting   =     14318.67983442   -13904.88182744
  entropy T*S    EENTRO =        -0.02007146
  eigenvalues    EBANDS =      -545.04093897
  atomic energy  EATOM  =     11693.69420960
  Solvation  Ediel_sol  =         0.00000000
  ---------------------------------------------------
  free energy    TOTEN  =       -91.94074767 eV

  energy without entropy =      -91.92067621  energy(sigma->0) =      -91.93405718


--------------------------------------------------------------------------------------------------------




--------------------------------------- Iteration      1(  16)  ---------------------------------------


    POTLOK:  cpu time    0.0187: real time    0.0187
    SETDIJ:  cpu time    0.0024: real time    0.0024
     EDDAV:  cpu time    7.1401: real time    7.1403
       DOS:  cpu time    0.0056: real time    0.0056
    CHARGE:  cpu time    0.3576: real time    0.3576
    MIXING:  cpu time    0.0015: real time    0.0015
    --------------------------------------------
      LOOP:  cpu time    7.5260: real time    7.5262

 eigenvalue-minimisations  : 11888
 total energy-change (2. order) : 0.1107872E+00  (-0.3187696E-01)
 number of electron     160.0000125 magnetization 
 augmentation part       50.0799609 magnetization 

 Broyden mixing:
  rms(total) = 0.15861E+00    rms(broyden)= 0.15858E+00
  rms(prec ) = 0.19051E+00
  weight for this iteration     100.00

 eigenvalues of (default mixing * dielectric matrix)
  average eigenvalue GAMMA=   0.7545
  1.7095  1.7095  1.5141  0.7095  0.7095  0.4831  0.4831  0.1595  0.2060  0.3078
  0.3078

 Free energy of the ion-electron system (eV)
  ---------------------------------------------------
  alpha Z        PSCENC =       350.82459594
  Ewald energy   TEWEN  =     73410.14867536
  -Hartree energ DENC   =    -85463.87854459
  -exchange      EXHF   =         0.00000000
  -V(xc)+E(xc)   XCENC  =        41.14267541
  PAW double counting   =     14312.06688235   -13898.14683606
  entropy T*S    EENTRO =        -0.00807172
  eigenvalues    EBANDS =      -537.67354678
  atomic energy  EATOM  =     11693.69420960
  Solvation  Ediel_sol  =         0.00000000
  ---------------------------------------------------
  free energy    TOTEN  =       -91.82996048 eV

  energy without entropy =      -91.82188876  energy(sigma->0) =      -91.82726991


--------------------------------------------------------------------------------------------------------




--------------------------------------- Iteration      1(  17)  ---------------------------------------


    POTLOK:  cpu time    0.0201: real time    0.0248
    SETDIJ:  cpu time    0.0023: real time    0.0023
     EDDAV:  cpu time    7.9215: real time    7.9217
       DOS:  cpu time    0.0058: real time    0.0058
    CHARGE:  cpu time    0.3581: real time    0.3581
    MIXING:  cpu time    0.0016: real time    0.0016
    --------------------------------------------
      LOOP:  cpu time    8.3093: real time    8.3143

 eigenvalue-minimisations  : 13544
 total energy-change (2. order) : 0.2651096E-01  (-0.4872027E-02)
 number of electron     160.0000124 magnetization 
 augmentation part       50.0704040 magnetization 

 Broyden mixing:
  rms(total) = 0.62192E-01    rms(broyden)= 0.62176E-01
  rms(prec ) = 0.66309E-01
  weight for this iteration     100.00

 eigenvalues of (default mixing * dielectric matrix)
  average eigenvalue GAMMA=   0.7356
  1.8259  1.6046  1.6046  0.6520  0.6520  0.5307  0.5307  0.1595  0.4260  0.2059
  0.3180  0.3180

 Free energy of the ion-electron system (eV)
  ---------------------------------------------------
  alpha Z        PSCENC =       350.82459594
  Ewald energy   TEWEN  =     73410.14867536
  -Hartree energ DENC   =    -85464.15260184
  -exchange      EXHF   =         0.00000000
  -V(xc)+E(xc)   XCENC  =        41.17197099
  PAW double counting   =     14291.22609812   -13877.08228380
  entropy T*S    EENTRO =        -0.01063587
  eigenvalues    EBANDS =      -537.62347803
  atomic energy  EATOM  =     11693.69420960
  Solvation  Ediel_sol  =         0.00000000
  ---------------------------------------------------
  free energy    TOTEN  =       -91.80344952 eV

  energy without entropy =      -91.79281365  energy(sigma->0) =      -91.79990423


--------------------------------------------------------------------------------------------------------




--------------------------------------- Iteration      1(  18)  ---------------------------------------


    POTLOK:  cpu time    0.0189: real time    0.0209
    SETDIJ:  cpu time    0.0025: real time    0.0025
     EDDAV:  cpu time    7.3801: real time    7.3804
       DOS:  cpu time    0.0057: real time    0.0057
    CHARGE:  cpu time    0.3595: real time    0.3595
    MIXING:  cpu time    0.0019: real time    0.0019
    --------------------------------------------
      LOOP:  cpu time    7.7686: real time    7.7710

 eigenvalue-minimisations  : 12368
 total energy-change (2. order) : 0.1942068E-02  (-0.8979800E-03)
 number of electron     160.0000124 magnetization 
 augmentation part       50.0703575 magnetization 

 Broyden mixing:
  rms(total) = 0.48679E-01    rms(broyden)= 0.48677E-01
  rms(prec ) = 0.51700E-01
  weight for this iteration     100.00

 eigenvalues of (default mixing * dielectric matrix)
  average eigenvalue GAMMA=   0.7789
  2.2504  1.5893  1.5893  0.8880  0.8880  0.6685  0.4605  0.4605  0.1595  0.2059
  0.2986  0.3336  0.3336

 Free energy of the ion-electron system (eV)
  ---------------------------------------------------
  alpha Z        PSCENC =       350.82459594
  Ewald energy   TEWEN  =     73410.14867536
  -Hartree energ DENC   =    -85464.64058044
  -exchange      EXHF   =         0.00000000
  -V(xc)+E(xc)   XCENC  =        41.18047372
  PAW double counting   =     14294.62353288   -13880.47637424
  entropy T*S    EENTRO =        -0.00921322
  eigenvalues    EBANDS =      -537.14682706
  atomic energy  EATOM  =     11693.69420960
  Solvation  Ediel_sol  =         0.00000000
  ---------------------------------------------------
  free energy    TOTEN  =       -91.80150746 eV

  energy without entropy =      -91.79229424  energy(sigma->0) =      -91.79843638


--------------------------------------------------------------------------------------------------------




[...]
     80      -0.1554      1.44522
     81      -0.0692      0.73756
     82      -0.0317      0.45353
     83       0.0923     -0.04205
     84       0.1720     -0.06606
     85       0.2630     -0.02750
     86       0.3871     -0.00303
     87       1.8711     -0.00000
     88       1.9429     -0.00000
     89       2.0140     -0.00000
     90       2.5145     -0.00000
     91       2.5485     -0.00000
     92       2.6544     -0.00000
     93       3.5990     -0.00000
     94       3.6968     -0.00000
     95       4.0339     -0.00000
     96       5.1274     -0.00000

 k-point    51 :      -0.4375    0.4375    0.0000
  band No.  band energies     occupation 
      1      -7.7057      2.00000
      2      -7.6535      2.00000
      3      -6.6629      2.00000
      4      -6.6259      2.00000
      5      -6.2454      2.00000
      6      -5.9761      2.00000
      7      -5.8794      2.00000
      8      -5.8257      2.00000
      9      -5.7935      2.00000
     10      -5.6745      2.00000
     11      -5.6075      2.00000
     12      -5.5377      2.00000
     13      -5.4895      2.00000
     14      -5.3384      2.00000
     15      -5.1921      2.00000
     16      -5.1547      2.00000
     17      -5.0772      2.00000
     18      -5.0636      2.00000
     19      -4.9433      2.00000
     20      -4.8246      2.00000
     21      -4.7400      2.00000
     22      -4.6642      2.00000
     23      -4.6007      2.00000
     24      -4.5154      2.00000
     25      -4.5017      2.00000
     26      -4.4233      2.00000
     27      -4.3618      2.00000
     28      -4.3225      2.00000
     29      -4.0409      2.00000
     30      -3.9626      2.00000
     31      -3.9188      2.00000
     32      -3.8653      2.00000
     33      -3.8127      2.00000
     34      -3.7651      2.00000
     35      -3.6342      2.00000
     36      -3.6209      2.00000
     37      -3.4731      2.00000
     38      -3.4245      2.00000
     39      -3.3736      2.00000
     40      -3.3379      2.00000
     41      -3.2562      2.00000
     42      -3.1198      2.00000
     43      -3.0904      2.00000
     44      -3.0827      2.00000
     45      -3.0078      2.00000
     46      -2.9850      2.00000
     47      -2.9500      2.00000
     48      -2.9211      2.00000
     49      -2.8539      2.00000
     50      -2.7654      2.00000
     51      -2.6914      2.00000
     52      -2.6075      2.00000
     53      -2.4870      2.00000
     54      -2.4049      2.00000
     55      -2.2552      2.00000
     56      -2.1995      2.00000
     57      -2.1735      2.00000
     58      -2.1174      2.00000
     59      -2.0134      2.00000
     60      -1.8908      2.00000
     61      -1.7598      2.00000
     62      -1.7184      2.00000
     63      -1.5962      2.00000
     64      -1.5392      2.00000
     65      -1.5009      2.00000
     66      -1.4180      2.00000
     67      -1.3399      2.00000
     68      -1.3286      2.00000
     69      -1.2415      2.00000
     70      -1.1541      2.00000
     71      -1.0925      2.00000
     72      -1.0081      2.00000
     73      -0.9689      2.00000
     74      -0.8851      2.00000
     75      -0.6669      2.00047
     76      -0.5421      2.00773
     77      -0.5265      2.01029
     78      -0.4262      2.04354
     79      -0.3105      2.05905
     80      -0.2353      1.90054
     81      -0.1563      1.45125
     82      -0.0410      0.51931
     83      -0.0241      0.40229
     84       0.1554     -0.07005
     85       0.2954     -0.01704
     86       0.3343     -0.00873
     87       0.9379     -0.00000
     88       1.2947     -0.00000
     89       2.2310     -0.00000
     90       2.2809     -0.00000
     91       2.3985     -0.00000
     92       3.0588     -0.00000
     93       3.9829     -0.00000
     94       4.1867     -0.00000
     95       4.7166     -0.00000
     96       4.7450     -0.00000

 k-point    52 :       0.1250   -0.4375    0.0000
  band No.  band energies     occupation 
      1      -7.7139      2.00000
      2      -7.6446      2.00000
      3      -6.6706      2.00000
      4      -6.6192      2.00000
      5      -6.2465      2.00000
      6      -5.9808      2.00000
      7      -5.8773      2.00000
      8      -5.8345      2.00000
      9      -5.7832      2.00000
     10      -5.6761      2.00000
     11      -5.6012      2.00000
     12      -5.5362      2.00000
     13      -5.4887      2.00000
     14      -5.3401      2.00000
     15      -5.1886      2.00000
     16      -5.1501      2.00000
     17      -5.0917      2.00000
     18      -5.0625      2.00000
     19      -4.9382      2.00000
     20      -4.8156      2.00000
     21      -4.7516      2.00000
     22      -4.6665      2.00000
     23      -4.5811      2.00000
     24      -4.5180      2.00000
     25      -4.5008      2.00000
     26      -4.4463      2.00000
     27      -4.3562      2.00000
     28      -4.3156      2.00000
     29      -4.0701      2.00000
     30      -3.9715      2.00000
     31      -3.9116      2.00000
     32      -3.8630      2.00000
     33      -3.8097      2.00000
     34      -3.7398      2.00000
     35      -3.6567      2.00000
     36      -3.6116      2.00000
     37      -3.4872      2.00000
     38      -3.4146      2.00000
     39      -3.3674      2.00000
     40      -3.3291      2.00000
     41      -3.2458      2.00000
     42      -3.1421      2.00000
     43      -3.1025      2.00000
     44      -3.0675      2.00000
     45      -3.0126      2.00000
     46      -2.9625      2.00000
     47      -2.9407      2.00000
     48      -2.9277      2.00000
     49      -2.8675      2.00000
     50      -2.7644      2.00000
     51      -2.6770      2.00000
     52      -2.6241      2.00000
     53      -2.5212      2.00000
     54      -2.3762      2.00000
     55      -2.2545      2.00000
     56      -2.2004      2.00000
     57      -2.1494      2.00000
     58      -2.1180      2.00000
     59      -2.0079      2.00000
     60      -1.9011      2.00000
     61      -1.7376      2.00000
     62      -1.7121      2.00000
     63      -1.6230      2.00000
     64      -1.6047      2.00000
     65      -1.4517      2.00000
     66      -1.4089      2.00000
     67      -1.3613      2.00000
     68      -1.2775      2.00000
     69      -1.2445      2.00000
     70      -1.1490      2.00000
     71      -1.0900      2.00000
     72      -1.0298      2.00000
     73      -1.0138      2.00000
     74      -0.8643      2.00000
     75      -0.6504      2.00071
     76      -0.6153      2.00166
     77      -0.4903      2.01883
     78      -0.3918      2.05912
     79      -0.3041      2.05373
     80      -0.2414      1.92241
     81      -0.1829      1.63513
     82      -0.0459      0.55571
     83       0.0245      0.13789
     84       0.1193     -0.06521
     85       0.2751     -0.02320
     86       0.3573     -0.00562
     87       0.9431     -0.00000
     88       1.2944     -0.00000
     89       2.2334     -0.00000
     90       2.3253     -0.00000
     91       2.3523     -0.00000
     92       3.0630     -0.00000
     93       3.9728     -0.00000
     94       4.1911     -0.00000
     95       4.6956     -0.00000
     96       4.7654     -0.00000


--------------------------------------------------------------------------------------------------------


 soft charge-density along one line, spin component           1
         0         1         2         3         4         5         6         7         8         9
 total charge-density along one line
 
 pseudopotential strength for first ion, spin component:           1
 -7.811   0.000  -0.000  -0.006   0.000  -7.962   0.000  -0.000
  0.000  -7.791   0.001   0.000  -0.008   0.000  -7.943   0.001
 -0.000   0.001  -7.808  -0.000  -0.001  -0.000   0.001  -7.960
 -0.006   0.000  -0.000  -7.790  -0.000  -0.006   0.000  -0.000
  0.000  -0.008  -0.001  -0.000  -7.811   0.000  -0.008  -0.001
 -7.962   0.000  -0.000  -0.006   0.000  -8.098   0.000  -0.000
  0.000  -7.943   0.001   0.000  -0.008   0.000  -8.079   0.001
 -0.000   0.001  -7.960  -0.000  -0.001  -0.000   0.001  -8.095
 -0.006   0.000  -0.000  -7.942  -0.000  -0.006   0.000  -0.000
  0.000  -0.008  -0.001  -0.000  -7.962   0.000  -0.008  -0.001
 -0.000  -0.000  -0.002  -0.000  -0.000  -0.000  -0.000  -0.002
 -0.000  -0.001  -0.003  -0.000  -0.001  -0.000  -0.001  -0.003
 -0.000  -0.002   0.000   0.000  -0.000  -0.000  -0.002   0.000
  0.000  -0.000  -0.003  -0.000   0.000   0.000  -0.000  -0.003
 -0.000   0.000   0.000  -0.002  -0.000  -0.000   0.000   0.000
 -0.000  -0.003   0.000   0.000  -0.000  -0.000  -0.003   0.000
  0.000  -0.000  -0.004  -0.000   0.000   0.000  -0.000  -0.004
 -0.000   0.000   0.000  -0.003  -0.000  -0.000   0.000   0.000
 total augmentation occupancy for first ion, spin component:           1
  6.170   0.000   0.000   0.242   0.000  -4.175   0.000   0.000  -0.337   0.000   0.000   0.000   0.000   0.000   0.002   0.000
  0.000   6.220   0.018   0.000   0.204   0.000  -4.007  -0.015   0.000  -0.308   0.003  -0.002   0.006   0.001   0.000  -0.002
  0.000   0.018   6.121   0.000  -0.027   0.000  -0.015  -4.213   0.000   0.021   0.113  -0.036   0.002   0.025   0.000  -0.000
  0.242   0.000   0.000   6.227   0.000  -0.337   0.000   0.000  -4.012   0.000   0.000   0.000   0.000   0.000   0.006   0.000
  0.000   0.204  -0.027   0.000   6.185   0.000  -0.308   0.021   0.000  -4.186   0.003  -0.000   0.000  -0.002   0.000  -0.000
 -4.175   0.000   0.000  -0.337   0.000   4.089   0.000   0.000   0.409   0.000   0.000   0.000   0.000   0.000  -0.004   0.000
  0.000  -4.007  -0.015   0.000  -0.308   0.000   3.746   0.012   0.000   0.386  -0.000  -0.000  -0.012  -0.000   0.000   0.001
  0.000  -0.015  -4.213   0.000   0.021   0.000   0.012   4.190   0.000  -0.016  -0.121   0.036  -0.001  -0.026   0.000   0.000
 -0.337   0.000   0.000  -4.012   0.000   0.409   0.000   0.000   3.751   0.000   0.000   0.000   0.000   0.000  -0.012   0.000
  0.000  -0.308   0.021   0.000  -4.186   0.000   0.386  -0.016   0.000   4.099  -0.001  -0.001  -0.002   0.002   0.000   0.000
  0.000   0.003   0.113   0.000   0.003   0.000  -0.000  -0.121   0.000  -0.001   3.046  -0.838  -0.000  -0.020   0.000  -0.000
  0.000  -0.002  -0.036   0.000  -0.000   0.000  -0.000   0.036   0.000  -0.001  -0.838   0.254   0.000   0.006   0.000   0.000
  0.000   0.006   0.002   0.000   0.000   0.000  -0.012  -0.001   0.000  -0.002  -0.000   0.000   0.250   0.000   0.000  -0.008
  0.000   0.001   0.025   0.000  -0.002   0.000  -0.000  -0.026   0.000   0.002  -0.020   0.006   0.000   0.237   0.000  -0.000
  0.002   0.000   0.000   0.006   0.000  -0.004   0.000   0.000  -0.012   0.000   0.000   0.000   0.000   0.000   0.250   0.000
  0.000  -0.002  -0.000   0.000  -0.000   0.000   0.001   0.000   0.000   0.000  -0.000   0.000  -0.008  -0.000   0.000   0.000
  0.000  -0.000  -0.003   0.000   0.000   0.000   0.000   0.001   0.000  -0.000   0.001  -0.000  -0.000  -0.008   0.000   0.000
 -0.000   0.000   0.000  -0.002   0.000   0.000   0.000   0.000   0.001   0.000   0.000   0.000   0.000   0.000  -0.008   0.000


------------------------ aborting loop because EDIFF is reached ----------------------------------------



 DIPCOR: dipole corrections for dipol
 direction  3 min pos   242,
 dipolmoment           0.000000      0.000000      0.020345 electrons x Angstroem
 Tr[quadrupol]      -945.212778

 energy correction for charged system         0.000000 eV
 dipol+quadrupol energy correction            0.000053 eV
 added-field ion interaction          0.000000 eV  (added to PSCEN)

 
  *************** adding dipol energy to TOTEN NOW **************** 
    CHARGE:  cpu time    0.3572: real time    0.3572
    FORLOC:  cpu time    0.0043: real time    0.0043
    FORNL :  cpu time    1.4228: real time    1.4228
    STRESS:  cpu time    4.2900: real time    4.2900
    FORCOR:  cpu time    0.0235: real time    0.0235
    FORHAR:  cpu time    0.0084: real time    0.0084
    MIXING:  cpu time    0.0021: real time    0.0021
    OFIELD:  cpu time    0.0000: real time    0.0000

  FORCE on cell =-STRESS in cart. coord.  units (eV):
  Direction    XX          YY          ZZ          XY          YZ          ZX
  --------------------------------------------------------------------------------------
  Alpha Z   350.82460   350.82460   350.82460
  Ewald   82328.37002 82328.27608-91246.51338    -0.00000    -0.13617    -0.00000
  Hartree 84782.52375 84782.55124-84089.04151    -0.00000    -0.07611     0.00000
  E(xc)    -710.37239  -710.39642  -715.21807     0.00004    -0.01412    -0.00000
  Local  ************************172439.07415     0.00116    -0.10489    -0.00004
  n-local    63.56680    63.50757    46.20331     4.01331     0.17559    -0.47667
  augment   833.86971   834.00198   862.08079    -0.00077     0.07396     0.00001
  Kinetic  2283.00164  2283.25813  2355.99533     2.60140     0.17232    -0.33311
  Fock        0.00000     0.00000     0.00000     0.00000     0.00000     0.00000
  -------------------------------------------------------------------------------------
  Total      -7.76895    -7.80182     3.40522     0.00000     0.09058     0.00000
  in kB     -17.45715   -17.53101     7.65166     0.00000     0.20354     0.00000
  external pressure =       -9.11 kB  Pullay stress =        0.00 kB


 VOLUME and BASIS-vectors are now :
 -----------------------------------------------------------------------------
  energy-cutoff  :      350.00
  volume of cell :      713.02
      direct lattice vectors                 reciprocal lattice vectors
     5.543717165  0.000000000  0.000000000     0.180384383 -0.104144972  0.000000000
     2.771858582  4.800999896  0.000000000     0.000000000  0.208289944  0.000000000
     0.000000000  0.000000000 26.789639166     0.000000000  0.000000000  0.037327864

  length of vectors
     5.543717165  5.543717165 26.789639166     0.208289944  0.208289944  0.037327864


 FORCES acting on ions
    electron-ion (+dipol)            ewald-force                    non-local-force                 convergence-correction
 -----------------------------------------------------------------------------------------------
   -.780E-06 0.330E+00 -.964E+03   -.313E-11 -.328E+00 0.964E+03   0.217E-18 -.663E-02 0.302E+00   -.454E-08 0.136E-01 0.183E+00
   -.215E-06 0.288E+00 0.243E+04   -.931E-12 -.268E+00 -.243E+04   0.000E+00 0.192E-01 -.299E+00   -.771E-08 -.488E-02 0.263E-01
   0.967E-06 -.330E-01 0.270E+04   -.104E-11 -.645E-12 -.270E+04   0.000E+00 0.729E-01 -.899E+00   0.577E-08 -.151E-01 0.331E-01
   0.310E+00 -.158E+00 0.270E+04   -.258E+00 0.149E+00 -.270E+04   -.576E-01 -.341E-01 -.101E+01   0.841E-02 0.104E-01 0.352E-01
   -.310E+00 -.158E+00 0.270E+04   0.258E+00 0.149E+00 -.270E+04   0.576E-01 -.341E-01 -.101E+01   -.841E-02 0.104E-01 0.352E-01
   -.250E+00 0.565E+01 0.943E+03   0.275E+00 -.586E+01 -.944E+03   0.802E-02 0.234E-01 0.171E+00   0.478E-02 -.295E-02 0.114E+00
   0.250E+00 0.565E+01 0.943E+03   -.275E+00 -.586E+01 -.944E+03   -.802E-02 0.234E-01 0.171E+00   -.478E-02 -.295E-02 0.114E+00
   0.484E-06 -.552E+01 0.938E+03   0.225E-11 0.570E+01 -.938E+03   0.867E-18 -.139E-01 0.150E+00   0.508E-08 -.684E-04 0.119E+00
   0.483E-06 -.581E+01 0.938E+03   0.366E-11 0.602E+01 -.938E+03   0.173E-17 -.255E-01 0.115E+00   -.799E-08 0.560E-02 0.115E+00
   -.864E-06 -.374E-01 -.877E+03   -.283E-11 -.176E-11 0.876E+03   0.000E+00 0.637E-01 0.521E+00   -.222E-08 0.513E-02 0.170E+00
   0.301E+00 -.127E+00 -.877E+03   -.258E+00 0.149E+00 0.876E+03   -.670E-01 -.192E-01 0.424E+00   0.606E-02 -.858E-02 0.160E+00
   -.301E+00 -.127E+00 -.877E+03   0.258E+00 0.149E+00 0.876E+03   0.670E-01 -.192E-01 0.424E+00   -.606E-02 -.858E-02 0.160E+00
   -.836E-06 0.297E-01 -.267E+04   0.106E-11 0.657E-12 0.267E+04   -.867E-18 0.992E-02 0.871E+00   -.313E-08 -.124E-01 0.140E+00
   -.662E-06 0.527E+01 -.267E+04   0.667E-12 -.546E+01 0.267E+04   0.000E+00 0.760E-01 0.100E+01   -.679E-08 -.127E-02 0.134E+00
   0.453E+01 -.264E+01 -.267E+04   -.473E+01 0.273E+01 0.267E+04   0.619E-01 -.540E-01 0.100E+01   0.969E-02 0.686E-02 0.142E+00
   -.453E+01 -.264E+01 -.267E+04   0.473E+01 0.273E+01 0.267E+04   -.619E-01 -.540E-01 0.100E+01   -.969E-02 0.686E-02 0.142E+00
 -----------------------------------------------------------------------------------------------
   -.180E-05 -.299E-01 -.475E+01   -.409E-13 -.324E-13 0.273E-11   0.208E-16 0.281E-01 0.294E+01   -.198E-07 0.208E-02 0.182E+01
 
 
 POSITION                                       TOTAL-FORCE (eV/Angst)
 -----------------------------------------------------------------------------------
      2.77186      1.60033     14.56863         0.000000      0.009080      0.199004
      2.77186      0.00000     10.00000         0.000000      0.034251      0.765287
      0.00000      0.00000     10.00000         0.000000      0.024881     -0.808347
      1.38593      2.40050     10.00000         0.002422     -0.032953     -0.500871
      4.15779      2.40050     10.00000        -0.002422     -0.032953     -0.500871
      1.38593      0.80017     12.26321         0.038719     -0.193580     -0.012482
      4.15779      0.80017     12.26321        -0.038719     -0.193580     -0.012482
      2.77186      3.20067     12.26321         0.000000      0.169747      0.355844
      5.54372      3.20067     12.26321        -0.000000      0.193915      0.191227
      5.54372      1.60033     14.56863         0.000000      0.031461     -0.174481
      6.92965      4.00083     14.56863        -0.017781     -0.005854      0.055818
      4.15779      4.00083     14.56863         0.017781     -0.005854      0.055818
      0.00000      0.00000     16.90767         0.000000      0.027154     -0.064214
      2.77186      0.00000     16.90767        -0.000000     -0.119724      0.146800
      1.38593      2.40050     16.90767        -0.124162      0.047005      0.151975
      4.15779      2.40050     16.90767         0.124162      0.047005      0.151975
 -----------------------------------------------------------------------------------
    total drift:                               -0.000002      0.000231      0.007859


--------------------------------------------------------------------------------------------------------



  FREE ENERGIE OF THE ION-ELECTRON SYSTEM (eV)
  ---------------------------------------------------
  free  energy   TOTEN  =       -91.79873369 eV

  energy  without entropy=      -91.78873478  energy(sigma->0) =      -91.79540072
 


--------------------------------------------------------------------------------------------------------


    POTLOK:  cpu time    0.0220: real time    0.0220


--------------------------------------------------------------------------------------------------------


     LOOP+:  cpu time  194.3838: real time  194.4483
    4ORBIT:  cpu time    0.0000: real time    0.0000

 total amount of memory used by VASP MPI-rank0    94183. kBytes
=======================================================================

   base      :      30000. kBytes
   nonlr-proj:       2110. kBytes
   fftplans  :       2594. kBytes
   grid      :       4625. kBytes
   one-center:         62. kBytes
   wavefun   :      54792. kBytes
 
  
  
 General timing and accounting informations for this job:
 ========================================================
  
                  Total CPU time used (sec):      198.184
                            User time (sec):      197.403
                          System time (sec):        0.781
                         Elapsed time (sec):      198.417
  
                   Maximum memory used (kb):      130992.
                   Average memory used (kb):           0.
  
                          Minor page faults:        60520
                          Major page faults:            0
                 Voluntary context switches:          623
