       N       E                     dE             d eps       ncg     rms          rms(c)
DAV:   1     0.102922112538E+04    0.10292E+04   -0.58321E+04 19296   0.103E+03
DAV:   2    -0.280491158993E+02   -0.10573E+04   -0.98084E+03 23856   0.259E+02
DAV:   3    -0.120326723119E+03   -0.92278E+02   -0.85233E+02 23000   0.761E+01
DAV:   4    -0.124827097846E+03   -0.45004E+01   -0.42786E+01 25808   0.169E+01
DAV:   5    -0.124968097343E+03   -0.14100E+00   -0.13960E+00 26792   0.295E+00    0.431E+01
DAV:   6    -0.119749321590E+03    0.52188E+01   -0.34602E+01 23212   0.242E+01    0.354E+01
DAV:   7    -0.172768998124E+03   -0.53020E+02   -0.23023E+02 29272   0.832E+01    0.593E+01
DAV:   8    -0.145020522691E+03    0.27748E+02   -0.99536E+01 27632   0.435E+01    0.451E+01
DAV:   9    -0.136781473465E+03    0.82390E+01   -0.63451E+01 32880   0.480E+01    0.336E+01
DAV:  10    -0.119249359359E+03    0.17532E+02   -0.49824E+01 27068   0.376E+01    0.196E+01
DAV:  11    -0.117544283602E+03    0.17051E+01   -0.27151E+01 28152   0.195E+01    0.158E+01
DAV:  12    -0.115890162551E+03    0.16541E+01   -0.10627E+01 26640   0.122E+01    0.742E+00
DAV:  13    -0.115535720863E+03    0.35444E+00   -0.77815E-01 28204   0.426E+00    0.509E+00
DAV:  14    -0.115461256199E+03    0.74465E-01   -0.12154E-01 25688   0.160E+00    0.473E+00
DAV:  15    -0.115422253791E+03    0.39002E-01   -0.67829E-02 24892   0.106E+00    0.393E+00
DAV:  16    -0.115420997929E+03    0.12559E-02   -0.35303E-01 20724   0.288E+00    0.229E+00
DAV:  17    -0.115374074207E+03    0.46924E-01   -0.16979E-01 20788   0.190E+00    0.119E+00
DAV:  18    -0.115358138902E+03    0.15935E-01   -0.35806E-02 22200   0.798E-01    0.649E-01
DAV:  19    -0.115355529241E+03    0.26097E-02   -0.11468E-02 21112   0.490E-01    0.566E-01
DAV:  20    -0.115351322142E+03    0.42071E-02   -0.76371E-03 21232   0.379E-01    0.300E-01
DAV:  21    -0.115350169271E+03    0.11529E-02   -0.31416E-03 23216   0.254E-01    0.217E-01
DAV:  22    -0.115349963200E+03    0.20607E-03   -0.19416E-03 22752   0.185E-01    0.281E-01
DAV:  23    -0.115349318456E+03    0.64474E-03   -0.15312E-03 23224   0.169E-01    0.101E-01
DAV:  24    -0.115349264250E+03    0.54207E-04   -0.55710E-04 24212   0.105E-01    0.716E-02
DAV:  25    -0.115349255587E+03    0.86632E-05   -0.19034E-04 23376   0.593E-02    0.326E-02
DAV:  26    -0.115349397266E+03   -0.14168E-03   -0.11598E-04 20036   0.417E-02    0.460E-02
DAV:  27    -0.115349489735E+03   -0.92469E-04   -0.52212E-05 16068   0.312E-02    0.299E-02
DAV:  28    -0.115349646741E+03   -0.15701E-03   -0.71181E-05 18576   0.301E-02    0.185E-02
DAV:  29    -0.115349769735E+03   -0.12299E-03   -0.24275E-05 14072   0.202E-02    0.185E-02
DAV:  30    -0.115349890204E+03   -0.12047E-03   -0.93560E-06 12592   0.121E-02    0.144E-02
DAV:  31    -0.115349981698E+03   -0.91493E-04   -0.53413E-06 12380   0.950E-03    0.109E-02
DAV:  32    -0.115350054682E+03   -0.72984E-04   -0.77876E-06 12384   0.105E-02    0.859E-03
DAV:  33    -0.115350110925E+03   -0.56243E-04   -0.30602E-06 12340   0.547E-03    0.596E-03
DAV:  34    -0.115350138001E+03   -0.27077E-04   -0.12677E-06 11720   0.341E-03    0.476E-03
DAV:  35    -0.115350152793E+03   -0.14792E-04   -0.76450E-07 11436   0.290E-03    0.604E-03
DAV:  36    -0.115350165923E+03   -0.13130E-04   -0.76995E-07 11460   0.295E-03    0.320E-03
DAV:  37    -0.115350178100E+03   -0.12178E-04   -0.12365E-06 11244   0.384E-03    0.241E-03
DAV:  38    -0.115350180602E+03   -0.25011E-05   -0.27854E-07 10752   0.214E-03
   1 F= -.11534136E+03 E0= -.11533656E+03  d E =-.144070E-01
