       N       E                     dE             d eps       ncg     rms          rms(c)
DAV:   1     0.102835971294E+04    0.10284E+04   -0.58323E+04 19304   0.103E+03
DAV:   2    -0.298940405970E+02   -0.10583E+04   -0.98339E+03 23984   0.259E+02
DAV:   3    -0.121235065690E+03   -0.91341E+02   -0.84461E+02 22944   0.758E+01
DAV:   4    -0.125728658737E+03   -0.44936E+01   -0.42743E+01 25584   0.170E+01
DAV:   5    -0.125870916948E+03   -0.14226E+00   -0.14119E+00 26644   0.299E+00    0.431E+01
DAV:   6    -0.118318735461E+03    0.75522E+01   -0.37250E+01 23096   0.253E+01    0.326E+01
DAV:   7    -0.136800123590E+03   -0.18481E+02   -0.83047E+01 25752   0.520E+01    0.426E+01
DAV:   8    -0.116859057216E+03    0.19941E+02   -0.43835E+01 27200   0.369E+01    0.117E+01
DAV:   9    -0.125324926879E+03   -0.84659E+01   -0.49258E+01 25720   0.355E+01    0.276E+01
DAV:  10    -0.120348476738E+03    0.49765E+01   -0.35484E+01 27408   0.321E+01    0.213E+01
DAV:  11    -0.116404665090E+03    0.39438E+01   -0.29715E+01 29932   0.198E+01    0.102E+01
DAV:  12    -0.115796572246E+03    0.60809E+00   -0.21232E+00 23616   0.595E+00    0.511E+00
DAV:  13    -0.115608338027E+03    0.18823E+00   -0.11575E+00 26376   0.496E+00    0.419E+00
DAV:  14    -0.115534477780E+03    0.73860E-01   -0.51833E-01 28544   0.252E+00    0.257E+00
DAV:  15    -0.115522779488E+03    0.11698E-01   -0.36452E-02 23592   0.853E-01    0.232E+00
DAV:  16    -0.115511798636E+03    0.10981E-01   -0.57211E-02 23368   0.113E+00    0.178E+00
DAV:  17    -0.115501481727E+03    0.10317E-01   -0.92361E-02 21736   0.144E+00    0.122E+00
DAV:  18    -0.115493697574E+03    0.77842E-02   -0.35616E-02 23368   0.864E-01    0.666E-01
DAV:  19    -0.115491916692E+03    0.17809E-02   -0.43069E-03 21072   0.292E-01    0.491E-01
DAV:  20    -0.115490717662E+03    0.11990E-02   -0.28165E-03 22552   0.218E-01    0.297E-01
DAV:  21    -0.115490415337E+03    0.30232E-03   -0.28777E-03 23240   0.206E-01    0.168E-01
DAV:  22    -0.115490161465E+03    0.25387E-03   -0.75001E-04 22160   0.118E-01    0.108E-01
DAV:  23    -0.115490128919E+03    0.32546E-04   -0.51423E-04 25000   0.861E-02    0.103E-01
DAV:  24    -0.115490184087E+03   -0.55168E-04   -0.29361E-04 22420   0.724E-02    0.633E-02
DAV:  25    -0.115490323969E+03   -0.13988E-03   -0.11563E-04 20684   0.492E-02    0.553E-02
DAV:  26    -0.115490423116E+03   -0.99146E-04   -0.10588E-04 16960   0.393E-02    0.334E-02
DAV:  27    -0.115490596107E+03   -0.17299E-03   -0.46284E-05 17512   0.256E-02    0.306E-02
DAV:  28    -0.115490755826E+03   -0.15972E-03   -0.46921E-05 16272   0.267E-02    0.275E-02
DAV:  29    -0.115490849939E+03   -0.94114E-04   -0.10773E-05 12272   0.135E-02    0.203E-02
DAV:  30    -0.115490983795E+03   -0.13386E-03   -0.11103E-05 12340   0.118E-02    0.147E-02
DAV:  31    -0.115491134539E+03   -0.15074E-03   -0.11629E-05 12796   0.115E-02    0.168E-02
DAV:  32    -0.115491184078E+03   -0.49539E-04   -0.34597E-06 12376   0.776E-03    0.125E-02
DAV:  33    -0.115491246585E+03   -0.62508E-04   -0.41130E-06 12264   0.756E-03    0.553E-03
DAV:  34    -0.115491269848E+03   -0.23263E-04   -0.11465E-06 12072   0.400E-03    0.331E-03
DAV:  35    -0.115491290492E+03   -0.20644E-04   -0.98133E-07 11808   0.347E-03    0.221E-03
DAV:  36    -0.115491304324E+03   -0.13832E-04   -0.55175E-07 11680   0.252E-03    0.299E-03
DAV:  37    -0.115491309742E+03   -0.54178E-05   -0.22071E-07 10628   0.183E-03
   1 F= -.11548556E+03 E0= -.11547612E+03  d E =-.283171E-01
