 vasp.5.4.4.18Apr17-6-g9f103f2a35 (build Apr 28 2017 10:53:45) complex          
  
 executed on             LinuxIFC date 2019.07.18  17:39:00
 running on   16 total cores
 distrk:  each k-point on   16 cores,    1 groups
 distr:  one band on NCORES_PER_BAND=   4 cores,    4 groups


--------------------------------------------------------------------------------------------------------


 INCAR:
 POTCAR:    PAW_PBE Au 04Oct2007                  
 POTCAR:    PAW_PBE C 08Apr2002                   
 POTCAR:    PAW_PBE H 15Jun2001                   
 POTCAR:    PAW_PBE Ir 06Sep2000                  
 POTCAR:    PAW_PBE Pt 04Feb2005                  
 POTCAR:    PAW_PBE Au 04Oct2007                  
   VRHFIN =Au: s1d10                                                            
   LEXCH  = PE                                                                  
   EATOM  =   926.0867 eV,   68.0654 Ry                                         
                                                                                
   TITEL  = PAW_PBE Au 04Oct2007                                                
   LULTRA =        F    use ultrasoft PP ?                                      
   IUNSCR =        1    unscreen: 0-lin 1-nonlin 2-no                           
   RPACOR =    2.330    partial core radius                                     
   POMASS =  196.966; ZVAL   =   11.000    mass and valenz                      
   RCORE  =    2.500    outmost cutoff radius                                   
   RWIGS  =    2.840; RWIGS  =    1.503    wigner-seitz radius (au A)           
   ENMAX  =  229.943; ENMIN  =  172.457 eV                                      
   ICORE  =        3    local potential                                         
   LCOR   =        T    correct aug charges                                     
   LPAW   =        T    paw PP                                                  
   EAUG   =  356.670                                                            
   DEXC   =    0.000                                                            
   RMAX   =    2.562    core radius for proj-oper                               
   RAUG   =    1.300    factor for augmentation sphere                          
   RDEP   =    2.598    radius for radial grids                                 
   RDEPT  =    2.193    core radius for aug-charge                              
                                                                                
   Atomic configuration                                                         
   16 entries                                                                   
     n  l   j            E        occ.                                          
     1  0  0.50    -80748.5001   2.0000                                         
     2  0  0.50    -14244.7466   2.0000                                         
     2  1  1.50    -12310.9591   6.0000                                         
     3  0  0.50     -3362.1768   2.0000                                         
     3  1  1.50     -2801.5463   6.0000                                         
     3  2  2.50     -2203.8206  10.0000                                         
     4  0  0.50      -729.8168   2.0000                                         
     4  1  1.50      -546.0527   6.0000                                         
     4  2  2.50      -325.7302  10.0000                                         
     4  3  3.50       -81.1472  14.0000                                         
     5  0  0.50      -108.3201   2.0000                                         
     5  1  1.50       -59.7479   6.0000                                         
     5  2  2.50        -6.8783  10.0000                                         
     6  0  0.50        -5.7602   1.0000                                         
     6  1  1.50        -6.8029   0.0000                                         
     5  3  2.50        -1.3606   0.0000                                         
   Description                                                                  
     l       E           TYP  RCUT    TYP  RCUT                                 
     2     -6.8782861     23  2.500                                             
     2     -8.2388687     23  2.500                                             
     0     -5.7601759     23  2.500                                             
     0     -0.8493231     23  2.500                                             
     1     -2.7211652     23  2.500                                             
     1     27.2116520     23  2.500                                             
     3     -1.3605826     23  2.500                                             
  local pseudopotential read in
  partial core-charges read in
  partial kinetic energy density read in
  atomic valenz-charges read in
  non local Contribution for L=           2  read in
    real space projection operators read in
  non local Contribution for L=           2  read in
    real space projection operators read in
  non local Contribution for L=           0  read in
    real space projection operators read in
  non local Contribution for L=           0  read in
    real space projection operators read in
  non local Contribution for L=           1  read in
    real space projection operators read in
  non local Contribution for L=           1  read in
    real space projection operators read in
    PAW grid and wavefunctions read in
 
   number of l-projection  operators is LMAX  =           6
   number of lm-projection operators is LMMAX =          18
 
 POTCAR:    PAW_PBE C 08Apr2002                   
   VRHFIN =C: s2p2                                                              
   LEXCH  = PE                                                                  
   EATOM  =   147.1560 eV,   10.8157 Ry                                         
                                                                                
   TITEL  = PAW_PBE C 08Apr2002                                                 
   LULTRA =        F    use ultrasoft PP ?                                      
   IUNSCR =        1    unscreen: 0-lin 1-nonlin 2-no                           
   RPACOR =    1.200    partial core radius                                     
   POMASS =   12.011; ZVAL   =    4.000    mass and valenz                      
   RCORE  =    1.500    outmost cutoff radius                                   
   RWIGS  =    1.630; RWIGS  =    0.863    wigner-seitz radius (au A)           
   ENMAX  =  400.000; ENMIN  =  300.000 eV                                      
   ICORE  =        2    local potential                                         
   LCOR   =        T    correct aug charges                                     
   LPAW   =        T    paw PP                                                  
   EAUG   =  644.873                                                            
   DEXC   =    0.000                                                            
   RMAX   =    1.529    core radius for proj-oper                               
   RAUG   =    1.300    factor for augmentation sphere                          
   RDEP   =    1.501    radius for radial grids                                 
   RDEPT  =    1.300    core radius for aug-charge                              
                                                                                
   Atomic configuration                                                         
    4 entries                                                                   
     n  l   j            E        occ.                                          
     1  0  0.50      -273.3789   2.0000                                         
     2  0  0.50       -13.7508   2.0000                                         
     2  1  0.50        -5.2854   2.0000                                         
     3  2  1.50        -5.4423   0.0000                                         
   Description                                                                  
     l       E           TYP  RCUT    TYP  RCUT                                 
     0    -13.7508458     23  1.200                                             
     0     -8.2022199     23  1.200                                             
     1     -5.2854383     23  1.500                                             
     1     34.0145650     23  1.500                                             
     2     -5.4423304      7  1.500                                             
  local pseudopotential read in
  partial core-charges read in
  partial kinetic energy density read in
  atomic valenz-charges read in
  non local Contribution for L=           0  read in
    real space projection operators read in
  non local Contribution for L=           0  read in
    real space projection operators read in
  non local Contribution for L=           1  read in
    real space projection operators read in
  non local Contribution for L=           1  read in
    real space projection operators read in
    PAW grid and wavefunctions read in
 
   number of l-projection  operators is LMAX  =           4
   number of lm-projection operators is LMMAX =           8
 
 POTCAR:    PAW_PBE H 15Jun2001                   
   VRHFIN =H: ultrasoft test                                                    
   LEXCH  = PE                                                                  
   EATOM  =    12.4884 eV,    0.9179 Ry                                         
                                                                                
   TITEL  = PAW_PBE H 15Jun2001                                                 
   LULTRA =        F    use ultrasoft PP ?                                      
   IUNSCR =        0    unscreen: 0-lin 1-nonlin 2-no                           
   RPACOR =    0.000    partial core radius                                     
   POMASS =    1.000; ZVAL   =    1.000    mass and valenz                      
   RCORE  =    1.100    outmost cutoff radius                                   
   RWIGS  =    0.700; RWIGS  =    0.370    wigner-seitz radius (au A)           
   ENMAX  =  250.000; ENMIN  =  200.000 eV                                      
   RCLOC  =    0.701    cutoff for local pot                                    
   LCOR   =        T    correct aug charges                                     
   LPAW   =        T    paw PP                                                  
   EAUG   =  400.000                                                            
   RMAX   =    1.123    core radius for proj-oper                               
   RAUG   =    1.200    factor for augmentation sphere                          
   RDEP   =    1.112    radius for radial grids                                 
   RDEPT  =    0.926    core radius for aug-charge                              
                                                                                
   Atomic configuration                                                         
    2 entries                                                                   
     n  l   j            E        occ.                                          
     1  0  0.50        -6.4927   1.0000                                         
     2  1  0.50        -3.4015   0.0000                                         
   Description                                                                  
     l       E           TYP  RCUT    TYP  RCUT                                 
     0     -6.4927494     23  1.100                                             
     0      6.8029130     23  1.100                                             
     1     -4.0817478     23  1.100                                             
  local pseudopotential read in
  atomic valenz-charges read in
  non local Contribution for L=           0  read in
    real space projection operators read in
  non local Contribution for L=           0  read in
    real space projection operators read in
  non local Contribution for L=           1  read in
    real space projection operators read in
    PAW grid and wavefunctions read in
 
   number of l-projection  operators is LMAX  =           3
   number of lm-projection operators is LMMAX =           5
 
 POTCAR:    PAW_PBE Ir 06Sep2000                  
   VRHFIN =Ir: s1d8                                                             
   LEXCH  = PE                                                                  
   EATOM  =   560.1833 eV,   41.1723 Ry                                         
                                                                                
   TITEL  = PAW_PBE Ir 06Sep2000                                                
   LULTRA =        F    use ultrasoft PP ?                                      
   IUNSCR =        1    unscreen: 0-lin 1-nonlin 2-no                           
   RPACOR =    2.250    partial core radius                                     
   POMASS =  192.220; ZVAL   =    9.000    mass and valenz                      
   RCORE  =    2.600    outmost cutoff radius                                   
   RWIGS  =    2.690; RWIGS  =    1.423    wigner-seitz radius (au A)           
   ENMAX  =  210.864; ENMIN  =  158.148 eV                                      
   RCLOC  =    1.857    cutoff for local pot                                    
   LCOR   =        T    correct aug charges                                     
   LPAW   =        T    paw PP                                                  
   EAUG   =  318.962                                                            
   DEXC   =    0.000                                                            
   RMAX   =    2.667    core radius for proj-oper                               
   RAUG   =    1.300    factor for augmentation sphere                          
   RDEP   =    2.748    radius for radial grids                                 
   RDEPT  =    2.300    core radius for aug-charge                              
                                                                                
   Atomic configuration                                                         
   16 entries                                                                   
     n  l   j            E        occ.                                          
     1  0  0.50    -76100.0449   2.0000                                         
     2  0  0.50    -13308.1683   2.0000                                         
     2  1  1.50    -11558.0021   6.0000                                         
     3  0  0.50     -3110.7274   2.0000                                         
     3  1  1.50     -2599.2109   6.0000                                         
     3  2  2.50     -2037.1515  10.0000                                         
     4  0  0.50      -661.6001   2.0000                                         
     4  1  1.50      -493.8981   6.0000                                         
     4  2  2.50      -288.1909  10.0000                                         
     4  3  3.50       -59.5718  14.0000                                         
     5  0  0.50       -95.3879   2.0000                                         
     5  1  1.50       -52.2747   6.0000                                         
     5  2  2.50        -5.4180   8.0000                                         
     6  0  0.50        -5.5479   1.0000                                         
     6  1  1.50        -6.8029   0.0000                                         
     5  3  2.50        -1.3606   0.0000                                         
   Description                                                                  
     l       E           TYP  RCUT    TYP  RCUT                                 
     2     -5.4179967     23  2.600                                             
     2     -6.7785793     23  2.600                                             
     0     -5.5478636     23  2.600                                             
     0      2.2542272     23  2.600                                             
     1     -2.7211652     23  2.600                                             
     1     20.4087390     23  2.600                                             
  local pseudopotential read in
  partial core-charges read in
  partial kinetic energy density read in
  atomic valenz-charges read in
  non local Contribution for L=           2  read in
    real space projection operators read in
  non local Contribution for L=           2  read in
    real space projection operators read in
  non local Contribution for L=           0  read in
    real space projection operators read in
  non local Contribution for L=           0  read in
    real space projection operators read in
  non local Contribution for L=           1  read in
    real space projection operators read in
  non local Contribution for L=           1  read in
    real space projection operators read in
    PAW grid and wavefunctions read in
 
   number of l-projection  operators is LMAX  =           6
   number of lm-projection operators is LMMAX =          18
 
 POTCAR:    PAW_PBE Pt 04Feb2005                  
   VRHFIN =Pt: s1d9                                                             
   LEXCH  = PE                                                                  
   EATOM  =   729.1176 eV,   53.5886 Ry                                         
                                                                                
   TITEL  = PAW_PBE Pt 04Feb2005                                                
   LULTRA =        F    use ultrasoft PP ?                                      
   IUNSCR =        1    unscreen: 0-lin 1-nonlin 2-no                           
   RPACOR =    2.330    partial core radius                                     
   POMASS =  195.080; ZVAL   =   10.000    mass and valenz                      
   RCORE  =    2.600    outmost cutoff radius                                   
   RWIGS  =    2.750; RWIGS  =    1.455    wigner-seitz radius (au A)           
   ENMAX  =  230.283; ENMIN  =  172.712 eV                                      
   ICORE  =        3    local potential                                         
   LCOR   =        T    correct aug charges                                     
   LPAW   =        T    paw PP                                                  
   EAUG   =  358.966                                                            
   DEXC   =    0.000                                                            
   RMAX   =    2.658    core radius for proj-oper                               
   RAUG   =    1.300    factor for augmentation sphere                          
   RDEP   =    2.761    radius for radial grids                                 
   RDEPT  =    2.203    core radius for aug-charge                              
                                                                                
   Atomic configuration                                                         
   16 entries                                                                   
     n  l   j            E        occ.                                          
     1  0  0.50    -78401.1885   2.0000                                         
     2  0  0.50    -13770.7750   2.0000                                         
     2  1  1.50    -11931.0468   6.0000                                         
     3  0  0.50     -3234.7234   2.0000                                         
     3  1  1.50     -2699.2216   6.0000                                         
     3  2  2.50     -2119.5714  10.0000                                         
     4  0  0.50      -695.1528   2.0000                                         
     4  1  1.50      -519.6034   6.0000                                         
     4  2  2.50      -306.6786  10.0000                                         
     4  3  3.50       -70.1041  14.0000                                         
     5  0  0.50      -101.7747   2.0000                                         
     5  1  1.50       -55.9873   6.0000                                         
     5  2  2.50        -6.1423   9.0000                                         
     6  0  0.50        -5.6573   1.0000                                         
     6  1  1.50        -6.8029   0.0000                                         
     5  3  2.50        -1.3606   0.0000                                         
   Description                                                                  
     l       E           TYP  RCUT    TYP  RCUT                                 
     2     -6.1423404     23  2.500                                             
     2     -7.5029230     23  2.500                                             
     0     -5.6573207     23  2.500                                             
     0      0.7416693     23  2.500                                             
     1     -2.7211652     23  2.600                                             
     1     20.4087390     23  2.600                                             
     3     -1.3605826     23  2.500                                             
  local pseudopotential read in
  partial core-charges read in
  partial kinetic energy density read in
  atomic valenz-charges read in
  non local Contribution for L=           2  read in
    real space projection operators read in
  non local Contribution for L=           2  read in
    real space projection operators read in
  non local Contribution for L=           0  read in
    real space projection operators read in
  non local Contribution for L=           0  read in
    real space projection operators read in
  non local Contribution for L=           1  read in
    real space projection operators read in
  non local Contribution for L=           1  read in
    real space projection operators read in
    PAW grid and wavefunctions read in
 
   number of l-projection  operators is LMAX  =           6
   number of lm-projection operators is LMMAX =          18
 
 Optimization of the real space projectors (new method)

 maximal supplied QI-value         = 15.12
 optimisation between [QCUT,QGAM] = [  9.52, 19.05] = [ 25.40,101.61] Ry 
 Optimized for a Real-space Cutoff    1.57 Angstroem

   l    n(q)    QCUT    max X(q) W(low)/X(q) W(high)/X(q)  e(spline) 
   2      8     9.524    60.898    0.38E-03    0.43E-04    0.84E-07
   2      8     9.524    58.894    0.38E-03    0.47E-04    0.88E-07
   0      9     9.524   109.617    0.60E-04    0.64E-04    0.80E-07
   0      9     9.524    75.026    0.59E-04    0.62E-04    0.78E-07
   1      8     9.524    16.344    0.99E-04    0.18E-03    0.87E-07
   1      8     9.524    10.160    0.78E-04    0.15E-03    0.74E-07
 Optimization of the real space projectors (new method)

 maximal supplied QI-value         = 25.13
 optimisation between [QCUT,QGAM] = [  9.55, 19.10] = [ 25.54,102.17] Ry 
 Optimized for a Real-space Cutoff    1.39 Angstroem

   l    n(q)    QCUT    max X(q) W(low)/X(q) W(high)/X(q)  e(spline) 
   0      8     9.551   115.676    0.39E-03    0.54E-03    0.29E-06
   0      8     9.551    87.132    0.39E-03    0.54E-03    0.28E-06
   1      7     9.551     4.429    0.35E-03    0.51E-04    0.29E-06
   1      7     9.551     2.733    0.22E-03    0.42E-04    0.31E-06
 Optimization of the real space projectors (new method)

 maximal supplied QI-value         = 34.20
 optimisation between [QCUT,QGAM] = [  9.58, 19.15] = [ 25.68,102.74] Ry 
 Optimized for a Real-space Cutoff    1.31 Angstroem

   l    n(q)    QCUT    max X(q) W(low)/X(q) W(high)/X(q)  e(spline) 
   0      7     9.577    19.460    0.33E-03    0.12E-03    0.35E-06
   0      7     9.577    12.209    0.33E-03    0.11E-03    0.33E-06
   1      7     9.577     4.655    0.39E-03    0.14E-02    0.33E-06
 Optimization of the real space projectors (new method)

 maximal supplied QI-value         = 14.36
 optimisation between [QCUT,QGAM] = [  9.48, 19.10] = [ 25.16,102.17] Ry 
 Optimized for a Real-space Cutoff    1.57 Angstroem

   l    n(q)    QCUT    max X(q) W(low)/X(q) W(high)/X(q)  e(spline) 
   2      8     9.479   134.116    0.18E-03    0.75E-03    0.26E-06
   2      8     9.479   130.192    0.18E-03    0.75E-03    0.27E-06
   0      9     9.479    60.310    0.39E-03    0.24E-03    0.63E-07
   0      9     9.479    39.218    0.36E-03    0.22E-03    0.59E-07
   1      8     9.479    18.439    0.20E-03    0.15E-03    0.16E-06
   1      8     9.479    12.760    0.16E-03    0.11E-03    0.13E-06
 Optimization of the real space projectors (new method)

 maximal supplied QI-value         = 14.36
 optimisation between [QCUT,QGAM] = [  9.48, 19.10] = [ 25.16,102.17] Ry 
 Optimized for a Real-space Cutoff    1.57 Angstroem

   l    n(q)    QCUT    max X(q) W(low)/X(q) W(high)/X(q)  e(spline) 
   2      8     9.479    66.195    0.35E-03    0.53E-04    0.87E-07
   2      8     9.479    64.643    0.35E-03    0.57E-04    0.91E-07
   0      9     9.479    95.520    0.50E-04    0.62E-04    0.81E-07
   0      9     9.479    63.403    0.49E-04    0.60E-04    0.78E-07
   1      8     9.479    19.961    0.10E-03    0.87E-04    0.11E-06
   1      8     9.479    13.289    0.88E-04    0.71E-04    0.97E-07
  PAW_PBE Au 04Oct2007                  :
 energy of atom  1       EATOM= -926.0867
 kinetic energy error for atom=    0.0152 (will be added to EATOM!!)
  PAW_PBE C 08Apr2002                   :
 energy of atom  2       EATOM= -147.1560
 kinetic energy error for atom=    0.0854 (will be added to EATOM!!)
  PAW_PBE H 15Jun2001                   :
 energy of atom  3       EATOM=  -12.4884
 kinetic energy error for atom=    0.0203 (will be added to EATOM!!)
  PAW_PBE Ir 06Sep2000                  :
 energy of atom  4       EATOM= -560.1833
 kinetic energy error for atom=    0.0056 (will be added to EATOM!!)
  PAW_PBE Pt 04Feb2005                  :
 energy of atom  5       EATOM= -729.1176
 kinetic energy error for atom=    0.0144 (will be added to EATOM!!)
 
 
 POSCAR: Au  C  H Ir Pt                          
  positions in cartesian coordinates
  No initial velocities read in
 exchange correlation table for  LEXCH =        8
   RHO(1)=    0.500       N(1)  =     2000
   RHO(2)=  100.500       N(2)  =     4000
 


--------------------------------------------------------------------------------------------------------


 ion  position               nearest neighbor table
   1  0.001  0.990  0.626-   3 1.70   2 2.25  10 2.75   9 2.76   8 2.78   8 2.80   9 2.80  10 2.82
                            21 2.86  11 2.98  13 3.00
   2  0.005  0.018  0.698-   6 1.10   5 1.10   4 1.10   3 1.45   1 2.25
   3  0.011  0.199  0.665-   2 1.45   1 1.70   9 2.10
   4  0.886  0.215  0.716-   2 1.10
   5  0.897  0.899  0.702-   2 1.10
   6  0.220  0.903  0.710-   2 1.10
   7  0.502  0.004  0.394-  12 2.78  19 2.78  18 2.78  18 2.78  19 2.78  12 2.78  17 2.82  14 2.82
                            16 2.83
   8  0.502  0.495  0.618-  20 2.77   9 2.77  10 2.77   1 2.78  10 2.79   9 2.79   1 2.80  13 2.80
                            11 2.80
   9  0.005  0.491  0.621-   3 2.10   1 2.76   8 2.77  10 2.78  10 2.78   8 2.79   1 2.80  13 2.82
                            21 2.84  20 2.86
  10  0.506  0.991  0.619-   1 2.75  21 2.77  11 2.77   8 2.77   9 2.78   9 2.78   8 2.79   1 2.82
                            20 2.82
  11  0.338  0.835  0.545-  21 2.74  10 2.77  20 2.77  13 2.77  13 2.79  15 2.79  20 2.79   8 2.80
                            14 2.81  17 2.81  21 2.82   1 2.98
  12  0.003  0.004  0.394-  18 2.77   7 2.78  19 2.78  19 2.78   7 2.78  18 2.78  16 2.82  17 2.83
                            15 2.83
  13  0.841  0.334  0.544-  21 2.76  11 2.77  20 2.77  20 2.79  11 2.79  17 2.79  16 2.80   8 2.80
                            21 2.80  14 2.81   9 2.82   1 3.00
  14  0.672  0.671  0.470-  15 2.78  16 2.78  17 2.78  17 2.78  16 2.78  15 2.78  11 2.81  13 2.81
                            19 2.82   7 2.82  18 2.85  21 2.86
  15  0.171  0.671  0.470-  14 2.78  16 2.78  17 2.78  17 2.78  16 2.78  14 2.78  11 2.79  20 2.80
                            21 2.82  12 2.83  18 2.84  19 2.84
  16  0.672  0.171  0.470-  15 2.78  17 2.78  14 2.78  14 2.78  17 2.78  15 2.78  20 2.80  13 2.80
                            12 2.82   7 2.83  18 2.84  21 2.86
  17  0.172  0.171  0.470-  16 2.78  15 2.78  14 2.78  14 2.78  15 2.78  16 2.78  20 2.78  13 2.79
                            11 2.81   7 2.82  19 2.83  12 2.83
  18  0.501  0.504  0.394-  19 2.77  12 2.77   7 2.78   7 2.78  12 2.78  19 2.79  16 2.84  15 2.84
                            14 2.85
  19  0.003  0.504  0.394-  18 2.77   7 2.78  12 2.78  12 2.78   7 2.78  18 2.79  14 2.82  17 2.83
                            15 2.84
  20  0.339  0.332  0.544-   8 2.77  11 2.77  13 2.77  21 2.77  17 2.78  21 2.79  13 2.79  11 2.79
                            16 2.80  15 2.80  10 2.82   9 2.86
  21  0.845  0.835  0.546-  11 2.74  13 2.76  10 2.77  20 2.77  20 2.79  13 2.80  11 2.82  15 2.82
                             9 2.84  16 2.86  14 2.86   1 2.86
 
  LATTYP: Found a hexagonal cell.
 ALAT       =     5.5578593001
 C/A-ratio  =     5.5429542221
  
  Lattice vectors:
  
 A1 = (   2.7789296501,  -4.8132473446,   0.0000000000)
 A2 = (  -5.5578593001,   0.0000000000,   0.0000000000)
 A3 = (   0.0000000000,   0.0000000000, -30.8069596737)


Analysis of symmetry for initial positions (statically):
=====================================================================
 Subroutine PRICEL returns:
 Original cell was already a primitive cell.
 

 Routine SETGRP: Setting up the symmetry group for a 
 hexagonal supercell.


 Subroutine GETGRP returns: Found  1 space group operations
 (whereof  1 operations were pure point group operations)
 out of a pool of 24 trial point group operations.


The static configuration has the point symmetry C_1 .


Analysis of symmetry for dynamics (positions and initial velocities):
=====================================================================
 Subroutine PRICEL returns:
 Original cell was already a primitive cell.
 

 Routine SETGRP: Setting up the symmetry group for a 
 hexagonal supercell.


 Subroutine GETGRP returns: Found  1 space group operations
 (whereof  1 operations were pure point group operations)
 out of a pool of 24 trial point group operations.


The dynamic configuration has the point symmetry C_1 .


 Subroutine INISYM returns: Found  1 space group operations
 (whereof  1 operations are pure point group operations),
 and found     1 'primitive' translations

 
 
 KPOINTS: 0.1.Ir1.Au12                            

Automatic generation of k-mesh.
Space group operators:
 irot       det(A)        alpha          n_x          n_y          n_z        tau_x        tau_y        tau_z
    1     1.000000     0.000001     1.000000     0.000000     0.000000     0.000000     0.000000     0.000000
 
 Subroutine IBZKPT returns following result:
 ===========================================
 
 Found     96 irreducible k-points:
 
 Following reciprocal coordinates:
            Coordinates               Weight
  0.062500  0.062500  0.000000     16.000000
  0.000000  0.062500  0.000000     16.000000
 -0.062500  0.000000  0.000000     16.000000
  0.187500  0.062500  0.000000     16.000000
  0.125000  0.187500  0.000000     16.000000
 -0.062500  0.125000  0.000000     16.000000
  0.125000 -0.062500  0.000000     16.000000
 -0.062500 -0.187500  0.000000     16.000000
 -0.187500 -0.125000  0.000000     16.000000
  0.312500  0.062500  0.000000     16.000000
  0.250000  0.312500  0.000000     16.000000
 -0.062500  0.250000  0.000000     16.000000
  0.250000 -0.062500  0.000000     16.000000
 -0.062500 -0.312500  0.000000     16.000000
 -0.312500 -0.250000  0.000000     16.000000
  0.437500  0.062500  0.000000     16.000000
  0.375000  0.437500  0.000000     16.000000
 -0.062500  0.375000  0.000000     16.000000
  0.375000 -0.062500  0.000000     16.000000
 -0.062500 -0.437500  0.000000     16.000000
 -0.437500 -0.375000  0.000000     16.000000
 -0.437500  0.062500  0.000000     16.000000
  0.500000 -0.437500  0.000000     16.000000
 -0.062500  0.500000  0.000000     16.000000
  0.500000 -0.062500  0.000000     16.000000
 -0.062500  0.437500  0.000000     16.000000
  0.437500  0.500000  0.000000     16.000000
 -0.312500  0.062500  0.000000     16.000000
 -0.375000 -0.312500  0.000000     16.000000
 -0.062500 -0.375000  0.000000     16.000000
 -0.375000 -0.062500  0.000000     16.000000
 -0.062500  0.312500  0.000000     16.000000
  0.312500  0.375000  0.000000     16.000000
 -0.187500  0.062500  0.000000     16.000000
 -0.250000 -0.187500  0.000000     16.000000
 -0.062500 -0.250000  0.000000     16.000000
 -0.250000 -0.062500  0.000000     16.000000
 -0.062500  0.187500  0.000000     16.000000
  0.187500  0.250000  0.000000     16.000000
 -0.062500  0.062500  0.000000     16.000000
 -0.125000 -0.062500  0.000000     16.000000
 -0.062500 -0.125000  0.000000     16.000000
  0.187500  0.187500  0.000000     16.000000
  0.000000  0.187500  0.000000     16.000000
 -0.187500  0.000000  0.000000     16.000000
  0.312500  0.187500  0.000000     16.000000
  0.125000  0.312500  0.000000     16.000000
 -0.187500  0.125000  0.000000     16.000000
  0.125000 -0.187500  0.000000     16.000000
 -0.187500 -0.312500  0.000000     16.000000
 -0.312500 -0.125000  0.000000     16.000000
  0.437500  0.187500  0.000000     16.000000
  0.250000  0.437500  0.000000     16.000000
 -0.187500  0.250000  0.000000     16.000000
  0.250000 -0.187500  0.000000     16.000000
 -0.187500 -0.437500  0.000000     16.000000
 -0.437500 -0.250000  0.000000     16.000000
 -0.437500  0.187500  0.000000     16.000000
  0.375000 -0.437500  0.000000     16.000000
 -0.187500  0.375000  0.000000     16.000000
  0.375000 -0.187500  0.000000     16.000000
 -0.187500  0.437500  0.000000     16.000000
  0.437500 -0.375000  0.000000     16.000000
 -0.312500  0.187500  0.000000     16.000000
  0.500000 -0.312500  0.000000     16.000000
 -0.187500  0.500000  0.000000     16.000000
  0.500000 -0.187500  0.000000     16.000000
 -0.187500  0.312500  0.000000     16.000000
  0.312500  0.500000  0.000000     16.000000
 -0.187500  0.187500  0.000000     16.000000
 -0.375000 -0.187500  0.000000     16.000000
 -0.187500 -0.375000  0.000000     16.000000
  0.312500  0.312500  0.000000     16.000000
  0.000000  0.312500  0.000000     16.000000
 -0.312500  0.000000  0.000000     16.000000
  0.437500  0.312500  0.000000     16.000000
  0.125000  0.437500  0.000000     16.000000
 -0.312500  0.125000  0.000000     16.000000
  0.125000 -0.312500  0.000000     16.000000
 -0.312500 -0.437500  0.000000     16.000000
 -0.437500 -0.125000  0.000000     16.000000
 -0.437500  0.312500  0.000000     16.000000
  0.250000 -0.437500  0.000000     16.000000
 -0.312500  0.250000  0.000000     16.000000
  0.250000 -0.312500  0.000000     16.000000
 -0.312500  0.437500  0.000000     16.000000
  0.437500 -0.250000  0.000000     16.000000
 -0.312500  0.312500  0.000000     16.000000
  0.375000 -0.312500  0.000000     16.000000
 -0.312500  0.375000  0.000000     16.000000
  0.437500  0.437500  0.000000     16.000000
  0.000000  0.437500  0.000000     16.000000
 -0.437500 -0.000000  0.000000     16.000000
 -0.437500  0.437500  0.000000     16.000000
  0.125000 -0.437500  0.000000     16.000000
 -0.437500  0.125000  0.000000     16.000000
 
 Following cartesian coordinates:
            Coordinates               Weight
  0.011245  0.006492  0.000000     16.000000
  0.000000  0.012985  0.000000     16.000000
 -0.011245  0.006492  0.000000     16.000000
  0.033736 -0.006492  0.000000     16.000000
  0.022491  0.025970  0.000000     16.000000
 -0.011245  0.032462  0.000000     16.000000
  0.022491 -0.025970  0.000000     16.000000
 -0.011245 -0.032462  0.000000     16.000000
 -0.033736 -0.006492  0.000000     16.000000
  0.056227 -0.019477  0.000000     16.000000
  0.044981  0.038955  0.000000     16.000000
 -0.011245  0.058432  0.000000     16.000000
  0.044981 -0.038955  0.000000     16.000000
 -0.011245 -0.058432  0.000000     16.000000
 -0.056227 -0.019477  0.000000     16.000000
  0.078717 -0.032462  0.000000     16.000000
  0.067472  0.051940  0.000000     16.000000
 -0.011245  0.084402  0.000000     16.000000
  0.067472 -0.051940  0.000000     16.000000
 -0.011245 -0.084402  0.000000     16.000000
 -0.078717 -0.032462  0.000000     16.000000
 -0.078717  0.058432  0.000000     16.000000
  0.089963 -0.142835  0.000000     16.000000
 -0.011245  0.110372  0.000000     16.000000
  0.089963 -0.064925  0.000000     16.000000
 -0.011245  0.097387  0.000000     16.000000
  0.078717  0.058432  0.000000     16.000000
 -0.056227  0.045447  0.000000     16.000000
 -0.067472 -0.025970  0.000000     16.000000
 -0.011245 -0.071417  0.000000     16.000000
 -0.067472  0.025970  0.000000     16.000000
 -0.011245  0.071417  0.000000     16.000000
  0.056227  0.045447  0.000000     16.000000
 -0.033736  0.032462  0.000000     16.000000
 -0.044981 -0.012985  0.000000     16.000000
 -0.011245 -0.045447  0.000000     16.000000
 -0.044981  0.012985  0.000000     16.000000
 -0.011245  0.045447  0.000000     16.000000
  0.033736  0.032462  0.000000     16.000000
 -0.011245  0.019477  0.000000     16.000000
 -0.022491  0.000000  0.000000     16.000000
 -0.011245 -0.019477  0.000000     16.000000
  0.033736  0.019477  0.000000     16.000000
  0.000000  0.038955  0.000000     16.000000
 -0.033736  0.019477  0.000000     16.000000
  0.056227  0.006492  0.000000     16.000000
  0.022491  0.051940  0.000000     16.000000
 -0.033736  0.045447  0.000000     16.000000
  0.022491 -0.051940  0.000000     16.000000
 -0.033736 -0.045447  0.000000     16.000000
 -0.056227  0.006492  0.000000     16.000000
  0.078717 -0.006492  0.000000     16.000000
  0.044981  0.064925  0.000000     16.000000
 -0.033736  0.071417  0.000000     16.000000
  0.044981 -0.064925  0.000000     16.000000
 -0.033736 -0.071417  0.000000     16.000000
 -0.078717 -0.006492  0.000000     16.000000
 -0.078717  0.084402  0.000000     16.000000
  0.067472 -0.129850  0.000000     16.000000
 -0.033736  0.097387  0.000000     16.000000
  0.067472 -0.077910  0.000000     16.000000
 -0.033736  0.110372  0.000000     16.000000
  0.078717 -0.123357  0.000000     16.000000
 -0.056227  0.071417  0.000000     16.000000
  0.089963 -0.116865  0.000000     16.000000
 -0.033736  0.123357  0.000000     16.000000
  0.089963 -0.090895  0.000000     16.000000
 -0.033736  0.084402  0.000000     16.000000
  0.056227  0.071417  0.000000     16.000000
 -0.033736  0.058432  0.000000     16.000000
 -0.067472  0.000000  0.000000     16.000000
 -0.033736 -0.058432  0.000000     16.000000
  0.056227  0.032462  0.000000     16.000000
  0.000000  0.064925  0.000000     16.000000
 -0.056227  0.032462  0.000000     16.000000
  0.078717  0.019477  0.000000     16.000000
  0.022491  0.077910  0.000000     16.000000
 -0.056227  0.058432  0.000000     16.000000
  0.022491 -0.077910  0.000000     16.000000
 -0.056227 -0.058432  0.000000     16.000000
 -0.078717  0.019477  0.000000     16.000000
 -0.078717  0.110372  0.000000     16.000000
  0.044981 -0.116865  0.000000     16.000000
 -0.056227  0.084402  0.000000     16.000000
  0.044981 -0.090895  0.000000     16.000000
 -0.056227  0.123357  0.000000     16.000000
  0.078717 -0.097387  0.000000     16.000000
 -0.056227  0.097387  0.000000     16.000000
  0.067472 -0.103880  0.000000     16.000000
 -0.056227  0.110372  0.000000     16.000000
  0.078717  0.045447  0.000000     16.000000
  0.000000  0.090895  0.000000     16.000000
 -0.078717  0.045447  0.000000     16.000000
 -0.078717  0.136342  0.000000     16.000000
  0.022491 -0.103880  0.000000     16.000000
 -0.078717  0.071417  0.000000     16.000000
 


--------------------------------------------------------------------------------------------------------




 Dimension of arrays:
   k-points           NKPTS =     96   k-points in BZ     NKDIM =     96   number of bands    NBANDS=    100
   number of dos      NEDOS =    301   number of ions     NIONS =     21
   non local maximal  LDIM  =      6   non local SUM 2l+1 LMDIM =     18
   total plane-waves  NPLWV = 112896
   max r-space proj   IRMAX =   2252   max aug-charges    IRDMAX=  10104
   dimension x,y,z NGX =    28 NGY =   28 NGZ =  144
   dimension x,y,z NGXF=    56 NGYF=   56 NGZF=  288
   support grid    NGXF=    56 NGYF=   56 NGZF=  288
   ions per type =               1   1   4   1  14
   NGX,Y,Z   is equivalent  to a cutoff of   8.38,  8.38,  7.77 a.u.
   NGXF,Y,Z  is equivalent  to a cutoff of  16.75, 16.75, 15.54 a.u.

 SYSTEM =  0.1.Ir1.Au12                            
 POSCAR =  Au  C  H Ir Pt                          

 Startparameter for this run:
   NWRITE =      2    write-flag & timer
   PREC   = normal    normal or accurate (medium, high low for compatibility)
   ISTART =      0    job   : 0-new  1-cont  2-samecut
   ICHARG =      2    charge: 1-file 2-atom 10-const
   ISPIN  =      1    spin polarized calculation?
   LNONCOLLINEAR =      F non collinear calculations
   LSORBIT =      F    spin-orbit coupling
   INIWAV =      1    electr: 0-lowe 1-rand  2-diag
   LASPH  =      F    aspherical Exc in radial PAW
   METAGGA=      F    non-selfconsistent MetaGGA calc.

 Electronic Relaxation 1
   ENCUT  =  350.0 eV  25.72 Ry    5.07 a.u.   8.48  8.48 46.99*2*pi/ulx,y,z
   ENINI  =  350.0     initial cutoff
   ENAUG  =  644.9 eV  augmentation charge cutoff
   NELM   =   1000;   NELMIN=  5; NELMDL= -5     # of ELM steps 
   EDIFF  = 0.1E-04   stopping-criterion for ELM
   LREAL  =      T    real-space projection
   NLSPLINE    = F    spline interpolate recip. space projectors
   LCOMPAT=      F    compatible to vasp.4.4
   GGA_COMPAT  = T    GGA compatible to vasp.4.4-vasp.4.6
   LMAXPAW     = -100 max onsite density
   LMAXMIX     =    2 max onsite mixed and CHGCAR
   VOSKOWN=      0    Vosko Wilk Nusair interpolation
   ROPT   =   -0.00050  -0.00050  -0.00050  -0.00050
   ROPT   =   -0.00050
 Ionic relaxation
   EDIFFG = 0.1E-03   stopping-criterion for IOM
   NSW    =      0    number of steps for IOM
   NBLOCK =      1;   KBLOCK =      1    inner block; outer block 
   IBRION =     -1    ionic relax: 0-MD 1-quasi-New 2-CG
   NFREE  =      0    steps in history (QN), initial steepest desc. (CG)
   ISIF   =      2    stress and relaxation
   IWAVPR =     10    prediction:  0-non 1-charg 2-wave 3-comb
   ISYM   =      2    0-nonsym 1-usesym 2-fastsym
   LCORR  =      T    Harris-Foulkes like correction to forces

   POTIM  = 0.5000    time-step for ionic-motion
   TEIN   =    0.0    initial temperature
   TEBEG  =    0.0;   TEEND  =   0.0 temperature during run
   SMASS  =  -3.00    Nose mass-parameter (am)
   estimated Nose-frequenzy (Omega)   =  0.10E-29 period in steps =****** mass=  -0.706E-27a.u.
   SCALEE = 1.0000    scale energy and forces
   NPACO  =    256;   APACO  = 16.0  distance and # of slots for P.C.
   PSTRESS=    0.0 pullay stress

  Mass of Ions in am
   POMASS = 196.97 12.01  1.00192.22195.08
  Ionic Valenz
   ZVAL   =  11.00  4.00  1.00  9.00 10.00
  Atomic Wigner-Seitz radii
   RWIGS  =  -1.00 -1.00 -1.00 -1.00 -1.00
  virtual crystal weights 
   VCA    =   1.00  1.00  1.00  1.00  1.00
   NELECT =     168.0000    total number of electrons
   NUPDOWN=      -1.0000    fix difference up-down

 DOS related values:
   EMIN   =  10.00;   EMAX   =-10.00  energy-range for DOS
   EFERMI =   0.00
   ISMEAR =     1;   SIGMA  =   0.20  broadening in eV -4-tet -1-fermi 0-gaus

 Electronic relaxation 2 (details)
   IALGO  =     38    algorithm
   LDIAG  =      T    sub-space diagonalisation (order eigenvalues)
   LSUBROT=      F    optimize rotation matrix (better conditioning)
   TURBO    =      0    0=normal 1=particle mesh
   IRESTART =      0    0=no restart 2=restart with 2 vectors
   NREBOOT  =      0    no. of reboots
   NMIN     =      0    reboot dimension
   EREF     =   0.00    reference energy to select bands
   IMIX   =      4    mixing-type and parameters
     AMIX     =   0.40;   BMIX     =  1.00
     AMIX_MAG =   1.60;   BMIX_MAG =  1.00
     AMIN     =   0.10
     WC   =   100.;   INIMIX=   1;  MIXPRE=   1;  MAXMIX= -45

 Intra band minimization:
   WEIMIN = 0.0000     energy-eigenvalue tresh-hold
   EBREAK =  0.25E-07  absolut break condition
   DEPER  =   0.30     relativ break condition  

   TIME   =   0.40     timestep for ELM

  volume/ion in A,a.u.               =      39.24       264.83
  Fermi-wavevector in a.u.,A,eV,Ry     =   0.963488  1.820729 12.630418  0.928310
  Thomas-Fermi vector in A             =   2.093038
 
 Write flags
   LWAVE        =      F    write WAVECAR
   LDOWNSAMPLE  =      F    k-point downsampling of WAVECAR
   LCHARG       =      F    write CHGCAR
   LVTOT        =      F    write LOCPOT, total local potential
   LVHAR        =      F    write LOCPOT, Hartree potential only
   LELF         =      F    write electronic localiz. function (ELF)
   LORBIT       =      0    0 simple, 1 ext, 2 COOP (PROOUT), +10 PAW based schemes


 Dipole corrections
   LMONO  =      F    monopole corrections only (constant potential shift)
   LDIPOL =      F    correct potential (dipole corrections)
   IDIPOL =      3    1-x, 2-y, 3-z, 4-all directions 
   EPSILON=  1.0000000 bulk dielectric constant

 Exchange correlation treatment:
   GGA     =    --    GGA type
   LEXCH   =     8    internal setting for exchange type
   VOSKOWN=      0    Vosko Wilk Nusair interpolation
   LHFCALC =     F    Hartree Fock is set to
   LHFONE  =     F    Hartree Fock one center treatment
   AEXX    =    0.0000 exact exchange contribution

 Linear response parameters
   LEPSILON=     F    determine dielectric tensor
   LRPA    =     F    only Hartree local field effects (RPA)
   LNABLA  =     F    use nabla operator in PAW spheres
   LVEL    =     F    velocity operator in full k-point grid
   LINTERFAST=   F  fast interpolation
   KINTER  =     0    interpolate to denser k-point grid
   CSHIFT  =0.1000    complex shift for real part using Kramers Kronig
   OMEGAMAX=  -1.0    maximum frequency
   DEG_THRESHOLD= 0.2000000E-02 threshold for treating states as degnerate
   RTIME   =   -0.100 relaxation time in fs
  (WPLASMAI=    0.000 imaginary part of plasma frequency in eV, 0.658/RTIME)
   DFIELD  = 0.0000000 0.0000000 0.0000000 field for delta impulse in time
 
 Orbital magnetization related:
   ORBITALMAG=     F  switch on orbital magnetization
   LCHIMAG   =     F  perturbation theory with respect to B field
   DQ        =  0.001000  dq finite difference perturbation B field
   LLRAUG    =     F  two centre corrections for induced B field



--------------------------------------------------------------------------------------------------------


 Static calculation
 charge density and potential will be updated during run
 non-spin polarized calculation
 Variant of blocked Davidson
 Davidson routine will perform the subspace rotation
 perform sub-space diagonalisation
    after iterative eigenvector-optimisation
 modified Broyden-mixing scheme, WC =      100.0
 initial mixing is a Kerker type mixing with AMIX =  0.4000 and BMIX =      1.0000
 Hartree-type preconditioning will be used
 using additional bands           16
 real space projection scheme for non local part
 use partial core corrections
 calculate Harris-corrections to forces 
   (improved forces if not selfconsistent)
 use gradient corrections 
 use of overlap-Matrix (Vanderbilt PP)
 Methfessel and Paxton  Order N= 1 SIGMA  =   0.20


--------------------------------------------------------------------------------------------------------


  energy-cutoff  :      350.00
  volume of cell :      824.13
      direct lattice vectors                 reciprocal lattice vectors
     5.557859300  0.000000000  0.000000000     0.179925390 -0.103879972  0.000000000
     2.778929650  4.813247345  0.000000000     0.000000000  0.207759944  0.000000000
     0.000000000  0.000000000 30.806959674     0.000000000  0.000000000  0.032460198

  length of vectors
     5.557859300  5.557859300 30.806959674     0.207759944  0.207759944  0.032460198


 
 k-points in units of 2pi/SCALE and weight: 0.1.Ir1.Au12                            
   0.01124534  0.00649250  0.00000000       0.010
   0.00000000  0.01298500  0.00000000       0.010
  -0.01124534  0.00649250  0.00000000       0.010
   0.03373601 -0.00649250  0.00000000       0.010
   0.02249067  0.02596999  0.00000000       0.010
  -0.01124534  0.03246249  0.00000000       0.010
   0.02249067 -0.02596999  0.00000000       0.010
  -0.01124534 -0.03246249  0.00000000       0.010
  -0.03373601 -0.00649250  0.00000000       0.010
   0.05622668 -0.01947749  0.00000000       0.010
   0.04498135  0.03895499  0.00000000       0.010
  -0.01124534  0.05843248  0.00000000       0.010
   0.04498135 -0.03895499  0.00000000       0.010
  -0.01124534 -0.05843248  0.00000000       0.010
  -0.05622668 -0.01947749  0.00000000       0.010
   0.07871736 -0.03246249  0.00000000       0.010
   0.06747202  0.05193999  0.00000000       0.010
  -0.01124534  0.08440248  0.00000000       0.010
   0.06747202 -0.05193999  0.00000000       0.010
  -0.01124534 -0.08440248  0.00000000       0.010
  -0.07871736 -0.03246249  0.00000000       0.010
  -0.07871736  0.05843248  0.00000000       0.010
   0.08996269 -0.14283496  0.00000000       0.010
  -0.01124534  0.11037247  0.00000000       0.010
   0.08996269 -0.06492498  0.00000000       0.010
  -0.01124534  0.09738747  0.00000000       0.010
   0.07871736  0.05843248  0.00000000       0.010
  -0.05622668  0.04544749  0.00000000       0.010
  -0.06747202 -0.02596999  0.00000000       0.010
  -0.01124534 -0.07141748  0.00000000       0.010
  -0.06747202  0.02596999  0.00000000       0.010
  -0.01124534  0.07141748  0.00000000       0.010
   0.05622668  0.04544749  0.00000000       0.010
  -0.03373601  0.03246249  0.00000000       0.010
  -0.04498135 -0.01298500  0.00000000       0.010
  -0.01124534 -0.04544749  0.00000000       0.010
  -0.04498135  0.01298500  0.00000000       0.010
  -0.01124534  0.04544749  0.00000000       0.010
   0.03373601  0.03246249  0.00000000       0.010
  -0.01124534  0.01947749  0.00000000       0.010
  -0.02249067  0.00000000  0.00000000       0.010
  -0.01124534 -0.01947749  0.00000000       0.010
   0.03373601  0.01947749  0.00000000       0.010
   0.00000000  0.03895499  0.00000000       0.010
  -0.03373601  0.01947749  0.00000000       0.010
   0.05622668  0.00649250  0.00000000       0.010
   0.02249067  0.05193999  0.00000000       0.010
  -0.03373601  0.04544749  0.00000000       0.010
   0.02249067 -0.05193999  0.00000000       0.010
  -0.03373601 -0.04544749  0.00000000       0.010
  -0.05622668  0.00649250  0.00000000       0.010
   0.07871736 -0.00649250  0.00000000       0.010
   0.04498135  0.06492498  0.00000000       0.010
  -0.03373601  0.07141748  0.00000000       0.010
   0.04498135 -0.06492498  0.00000000       0.010
  -0.03373601 -0.07141748  0.00000000       0.010
  -0.07871736 -0.00649250  0.00000000       0.010
  -0.07871736  0.08440248  0.00000000       0.010
   0.06747202 -0.12984997  0.00000000       0.010
  -0.03373601  0.09738747  0.00000000       0.010
   0.06747202 -0.07790998  0.00000000       0.010
  -0.03373601  0.11037247  0.00000000       0.010
   0.07871736 -0.12335747  0.00000000       0.010
  -0.05622668  0.07141748  0.00000000       0.010
   0.08996269 -0.11686497  0.00000000       0.010
  -0.03373601  0.12335747  0.00000000       0.010
   0.08996269 -0.09089498  0.00000000       0.010
  -0.03373601  0.08440248  0.00000000       0.010
   0.05622668  0.07141748  0.00000000       0.010
  -0.03373601  0.05843248  0.00000000       0.010
  -0.06747202  0.00000000  0.00000000       0.010
  -0.03373601 -0.05843248  0.00000000       0.010
   0.05622668  0.03246249  0.00000000       0.010
   0.00000000  0.06492498  0.00000000       0.010
  -0.05622668  0.03246249  0.00000000       0.010
   0.07871736  0.01947749  0.00000000       0.010
   0.02249067  0.07790998  0.00000000       0.010
  -0.05622668  0.05843248  0.00000000       0.010
   0.02249067 -0.07790998  0.00000000       0.010
  -0.05622668 -0.05843248  0.00000000       0.010
  -0.07871736  0.01947749  0.00000000       0.010
  -0.07871736  0.11037247  0.00000000       0.010
   0.04498135 -0.11686497  0.00000000       0.010
  -0.05622668  0.08440248  0.00000000       0.010
   0.04498135 -0.09089498  0.00000000       0.010
  -0.05622668  0.12335747  0.00000000       0.010
   0.07871736 -0.09738747  0.00000000       0.010
  -0.05622668  0.09738747  0.00000000       0.010
   0.06747202 -0.10387997  0.00000000       0.010
  -0.05622668  0.11037247  0.00000000       0.010
   0.07871736  0.04544749  0.00000000       0.010
   0.00000000  0.09089498  0.00000000       0.010
  -0.07871736  0.04544749  0.00000000       0.010
  -0.07871736  0.13634246  0.00000000       0.010
   0.02249067 -0.10387997  0.00000000       0.010
  -0.07871736  0.07141748  0.00000000       0.010
 
 k-points in reciprocal lattice and weights: 0.1.Ir1.Au12                            
   0.06250000  0.06250000  0.00000000       0.010
   0.00000000  0.06250000  0.00000000       0.010
  -0.06250000  0.00000000  0.00000000       0.010
   0.18750000  0.06250000  0.00000000       0.010
   0.12500000  0.18750000  0.00000000       0.010
  -0.06250000  0.12500000  0.00000000       0.010
   0.12500000 -0.06250000  0.00000000       0.010
  -0.06250000 -0.18750000  0.00000000       0.010
  -0.18750000 -0.12500000  0.00000000       0.010
   0.31250000  0.06250000  0.00000000       0.010
   0.25000000  0.31250000  0.00000000       0.010
  -0.06250000  0.25000000  0.00000000       0.010
   0.25000000 -0.06250000  0.00000000       0.010
  -0.06250000 -0.31250000  0.00000000       0.010
  -0.31250000 -0.25000000  0.00000000       0.010
   0.43750000  0.06250000  0.00000000       0.010
   0.37500000  0.43750000  0.00000000       0.010
  -0.06250000  0.37500000  0.00000000       0.010
   0.37500000 -0.06250000  0.00000000       0.010
  -0.06250000 -0.43750000  0.00000000       0.010
  -0.43750000 -0.37500000  0.00000000       0.010
  -0.43750000  0.06250000  0.00000000       0.010
   0.50000000 -0.43750000  0.00000000       0.010
  -0.06250000  0.50000000  0.00000000       0.010
   0.50000000 -0.06250000  0.00000000       0.010
  -0.06250000  0.43750000  0.00000000       0.010
   0.43750000  0.50000000  0.00000000       0.010
  -0.31250000  0.06250000  0.00000000       0.010
  -0.37500000 -0.31250000  0.00000000       0.010
  -0.06250000 -0.37500000  0.00000000       0.010
  -0.37500000 -0.06250000  0.00000000       0.010
  -0.06250000  0.31250000  0.00000000       0.010
   0.31250000  0.37500000  0.00000000       0.010
  -0.18750000  0.06250000  0.00000000       0.010
  -0.25000000 -0.18750000  0.00000000       0.010
  -0.06250000 -0.25000000  0.00000000       0.010
  -0.25000000 -0.06250000  0.00000000       0.010
  -0.06250000  0.18750000  0.00000000       0.010
   0.18750000  0.25000000  0.00000000       0.010
  -0.06250000  0.06250000  0.00000000       0.010
  -0.12500000 -0.06250000  0.00000000       0.010
  -0.06250000 -0.12500000  0.00000000       0.010
   0.18750000  0.18750000  0.00000000       0.010
   0.00000000  0.18750000  0.00000000       0.010
  -0.18750000  0.00000000  0.00000000       0.010
   0.31250000  0.18750000  0.00000000       0.010
   0.12500000  0.31250000  0.00000000       0.010
  -0.18750000  0.12500000  0.00000000       0.010
   0.12500000 -0.18750000  0.00000000       0.010
  -0.18750000 -0.31250000  0.00000000       0.010
  -0.31250000 -0.12500000  0.00000000       0.010
   0.43750000  0.18750000  0.00000000       0.010
   0.25000000  0.43750000  0.00000000       0.010
  -0.18750000  0.25000000  0.00000000       0.010
   0.25000000 -0.18750000  0.00000000       0.010
  -0.18750000 -0.43750000  0.00000000       0.010
  -0.43750000 -0.25000000  0.00000000       0.010
  -0.43750000  0.18750000  0.00000000       0.010
   0.37500000 -0.43750000  0.00000000       0.010
  -0.18750000  0.37500000  0.00000000       0.010
   0.37500000 -0.18750000  0.00000000       0.010
  -0.18750000  0.43750000  0.00000000       0.010
   0.43750000 -0.37500000  0.00000000       0.010
  -0.31250000  0.18750000  0.00000000       0.010
   0.50000000 -0.31250000  0.00000000       0.010
  -0.18750000  0.50000000  0.00000000       0.010
   0.50000000 -0.18750000  0.00000000       0.010
  -0.18750000  0.31250000  0.00000000       0.010
   0.31250000  0.50000000  0.00000000       0.010
  -0.18750000  0.18750000  0.00000000       0.010
  -0.37500000 -0.18750000  0.00000000       0.010
  -0.18750000 -0.37500000  0.00000000       0.010
   0.31250000  0.31250000  0.00000000       0.010
   0.00000000  0.31250000  0.00000000       0.010
  -0.31250000  0.00000000  0.00000000       0.010
   0.43750000  0.31250000  0.00000000       0.010
   0.12500000  0.43750000  0.00000000       0.010
  -0.31250000  0.12500000  0.00000000       0.010
   0.12500000 -0.31250000  0.00000000       0.010
  -0.31250000 -0.43750000  0.00000000       0.010
  -0.43750000 -0.12500000  0.00000000       0.010
  -0.43750000  0.31250000  0.00000000       0.010
   0.25000000 -0.43750000  0.00000000       0.010
  -0.31250000  0.25000000  0.00000000       0.010
   0.25000000 -0.31250000  0.00000000       0.010
  -0.31250000  0.43750000  0.00000000       0.010
   0.43750000 -0.25000000  0.00000000       0.010
  -0.31250000  0.31250000  0.00000000       0.010
   0.37500000 -0.31250000  0.00000000       0.010
  -0.31250000  0.37500000  0.00000000       0.010
   0.43750000  0.43750000  0.00000000       0.010
   0.00000000  0.43750000  0.00000000       0.010
  -0.43750000 -0.00000000  0.00000000       0.010
  -0.43750000  0.43750000  0.00000000       0.010
   0.12500000 -0.43750000  0.00000000       0.010
  -0.43750000  0.12500000  0.00000000       0.010
 
 position of ions in fractional coordinates (direct lattice) 
   0.00107615  0.99010181  0.62553369
   0.00455188  0.01809239  0.69826898
   0.01082890  0.19933891  0.66484866
   0.88555978  0.21542093  0.71605684
   0.89683584  0.89902911  0.70192826
   0.21990527  0.90250192  0.70968106
   0.50216607  0.00394927  0.39441784
   0.50173592  0.49482435  0.61832594
   0.00534332  0.49119854  0.62105388
   0.50642684  0.99120149  0.61877215
   0.33829960  0.83492886  0.54461086
   0.00291085  0.00358528  0.39448330
   0.84053269  0.33358080  0.54447378
   0.67178249  0.67082144  0.46985119
   0.17112408  0.67076527  0.47034387
   0.67162093  0.17073418  0.46984191
   0.17151367  0.17052295  0.47004266
   0.50142232  0.50378574  0.39390381
   0.00294830  0.50362763  0.39434885
   0.33934189  0.33244356  0.54427055
   0.84498985  0.83511317  0.54630159
 
 position of ions in cartesian coordinates  (Angst):
   2.75740435  4.76560490 19.27079117
   0.07557620  0.08708313 21.51154444
   0.61413428  0.95946746 20.48196579
   5.52045625  1.03687421 22.05953431
   7.48282607  4.32724946 21.62427562
   3.73019189  4.34396499 21.86311573
   2.80194312  0.01900883 12.15081435
   4.16365968  2.38171199 19.04874218
   1.39470359  2.36426007 19.13278176
   5.56912836  4.77089794 19.06248871
   4.20043014  4.01871910 16.77780489
   0.02614133  0.01725686 12.15283102
   5.59856000  1.60560690 16.77358179
   5.59783817  3.22882952 14.47468664
   2.81509307  3.22855918 14.48986472
   4.20723291  0.82178583 14.47440084
   1.42712012  0.82076911 14.48058524
   4.18681982  2.42484536 12.13497875
   1.41593201  2.42408436 12.14868907
   2.80985173  1.60013307 16.76732076
   7.01705543  4.01960625 16.82989113
 


--------------------------------------------------------------------------------------------------------


 k-point  1 :   0.0625 0.0625 0.0000  plane waves:   12325
 k-point  2 :   0.0000 0.0625 0.0000  plane waves:   12325
 k-point  3 :  -0.0625 0.0000 0.0000  plane waves:   12325
 k-point  4 :   0.1875 0.0625 0.0000  plane waves:   12294
 k-point  5 :   0.1250 0.1875 0.0000  plane waves:   12294
 k-point  6 :  -0.0625 0.1250 0.0000  plane waves:   12294
 k-point  7 :   0.1250-0.0625 0.0000  plane waves:   12294
 k-point  8 :  -0.0625-0.1875 0.0000  plane waves:   12294
 k-point  9 :  -0.1875-0.1250 0.0000  plane waves:   12294
 k-point 10 :   0.3125 0.0625 0.0000  plane waves:   12263
 k-point 11 :   0.2500 0.3125 0.0000  plane waves:   12263
 k-point 12 :  -0.0625 0.2500 0.0000  plane waves:   12263
 k-point 13 :   0.2500-0.0625 0.0000  plane waves:   12263
 k-point 14 :  -0.0625-0.3125 0.0000  plane waves:   12263
 k-point 15 :  -0.3125-0.2500 0.0000  plane waves:   12263
 k-point 16 :   0.4375 0.0625 0.0000  plane waves:   12221
 k-point 17 :   0.3750 0.4375 0.0000  plane waves:   12221
 k-point 18 :  -0.0625 0.3750 0.0000  plane waves:   12221
 k-point 19 :   0.3750-0.0625 0.0000  plane waves:   12221
 k-point 20 :  -0.0625-0.4375 0.0000  plane waves:   12221
 k-point 21 :  -0.4375-0.3750 0.0000  plane waves:   12221
 k-point 22 :  -0.4375 0.0625 0.0000  plane waves:   12211
 k-point 23 :   0.5000-0.4375 0.0000  plane waves:   12211
 k-point 24 :  -0.0625 0.5000 0.0000  plane waves:   12211
 k-point 25 :   0.5000-0.0625 0.0000  plane waves:   12211
 k-point 26 :  -0.0625 0.4375 0.0000  plane waves:   12211
 k-point 27 :   0.4375 0.5000 0.0000  plane waves:   12211
 k-point 28 :  -0.3125 0.0625 0.0000  plane waves:   12242
 k-point 29 :  -0.3750-0.3125 0.0000  plane waves:   12242
 k-point 30 :  -0.0625-0.3750 0.0000  plane waves:   12242
 k-point 31 :  -0.3750-0.0625 0.0000  plane waves:   12242
 k-point 32 :  -0.0625 0.3125 0.0000  plane waves:   12242
 k-point 33 :   0.3125 0.3750 0.0000  plane waves:   12242
 k-point 34 :  -0.1875 0.0625 0.0000  plane waves:   12280
 k-point 35 :  -0.2500-0.1875 0.0000  plane waves:   12280
 k-point 36 :  -0.0625-0.2500 0.0000  plane waves:   12280
 k-point 37 :  -0.2500-0.0625 0.0000  plane waves:   12280
 k-point 38 :  -0.0625 0.1875 0.0000  plane waves:   12280
 k-point 39 :   0.1875 0.2500 0.0000  plane waves:   12280
 k-point 40 :  -0.0625 0.0625 0.0000  plane waves:   12329
 k-point 41 :  -0.1250-0.0625 0.0000  plane waves:   12329
 k-point 42 :  -0.0625-0.1250 0.0000  plane waves:   12329
 k-point 43 :   0.1875 0.1875 0.0000  plane waves:   12277
 k-point 44 :   0.0000 0.1875 0.0000  plane waves:   12277
 k-point 45 :  -0.1875 0.0000 0.0000  plane waves:   12277
 k-point 46 :   0.3125 0.1875 0.0000  plane waves:   12288
 k-point 47 :   0.1250 0.3125 0.0000  plane waves:   12288
 k-point 48 :  -0.1875 0.1250 0.0000  plane waves:   12288
 k-point 49 :   0.1250-0.1875 0.0000  plane waves:   12288
 k-point 50 :  -0.1875-0.3125 0.0000  plane waves:   12288
 k-point 51 :  -0.3125-0.1250 0.0000  plane waves:   12288
 k-point 52 :   0.4375 0.1875 0.0000  plane waves:   12234
 k-point 53 :   0.2500 0.4375 0.0000  plane waves:   12234
 k-point 54 :  -0.1875 0.2500 0.0000  plane waves:   12234
 k-point 55 :   0.2500-0.1875 0.0000  plane waves:   12234
 k-point 56 :  -0.1875-0.4375 0.0000  plane waves:   12234
 k-point 57 :  -0.4375-0.2500 0.0000  plane waves:   12234
 k-point 58 :  -0.4375 0.1875 0.0000  plane waves:   12216
 k-point 59 :   0.3750-0.4375 0.0000  plane waves:   12216
 k-point 60 :  -0.1875 0.3750 0.0000  plane waves:   12216
 k-point 61 :   0.3750-0.1875 0.0000  plane waves:   12216
 k-point 62 :  -0.1875 0.4375 0.0000  plane waves:   12216
 k-point 63 :   0.4375-0.3750 0.0000  plane waves:   12216
 k-point 64 :  -0.3125 0.1875 0.0000  plane waves:   12215
 k-point 65 :   0.5000-0.3125 0.0000  plane waves:   12215
 k-point 66 :  -0.1875 0.5000 0.0000  plane waves:   12215
 k-point 67 :   0.5000-0.1875 0.0000  plane waves:   12215
 k-point 68 :  -0.1875 0.3125 0.0000  plane waves:   12215
 k-point 69 :   0.3125 0.5000 0.0000  plane waves:   12215
 k-point 70 :  -0.1875 0.1875 0.0000  plane waves:   12289
 k-point 71 :  -0.3750-0.1875 0.0000  plane waves:   12289
 k-point 72 :  -0.1875-0.3750 0.0000  plane waves:   12289
 k-point 73 :   0.3125 0.3125 0.0000  plane waves:   12275
 k-point 74 :   0.0000 0.3125 0.0000  plane waves:   12275
 k-point 75 :  -0.3125 0.0000 0.0000  plane waves:   12275
 k-point 76 :   0.4375 0.3125 0.0000  plane waves:   12239
 k-point 77 :   0.1250 0.4375 0.0000  plane waves:   12239
 k-point 78 :  -0.3125 0.1250 0.0000  plane waves:   12239
 k-point 79 :   0.1250-0.3125 0.0000  plane waves:   12239
 k-point 80 :  -0.3125-0.4375 0.0000  plane waves:   12239
 k-point 81 :  -0.4375-0.1250 0.0000  plane waves:   12239
 k-point 82 :  -0.4375 0.3125 0.0000  plane waves:   12235
 k-point 83 :   0.2500-0.4375 0.0000  plane waves:   12235
 k-point 84 :  -0.3125 0.2500 0.0000  plane waves:   12235
 k-point 85 :   0.2500-0.3125 0.0000  plane waves:   12235
 k-point 86 :  -0.3125 0.4375 0.0000  plane waves:   12235
 k-point 87 :   0.4375-0.2500 0.0000  plane waves:   12235
 k-point 88 :  -0.3125 0.3125 0.0000  plane waves:   12232
 k-point 89 :   0.3750-0.3125 0.0000  plane waves:   12232
 k-point 90 :  -0.3125 0.3750 0.0000  plane waves:   12232
 k-point 91 :   0.4375 0.4375 0.0000  plane waves:   12200
 k-point 92 :   0.0000 0.4375 0.0000  plane waves:   12200
 k-point 93 :  -0.4375-0.0000 0.0000  plane waves:   12200
 k-point 94 :  -0.4375 0.4375 0.0000  plane waves:   12214
 k-point 95 :   0.1250-0.4375 0.0000  plane waves:   12214
 k-point 96 :  -0.4375 0.1250 0.0000  plane waves:   12214

 maximum and minimum number of plane-waves per node :      3101     2992

 maximum number of plane-waves:     12329
 maximum index in each direction: 
   IXMAX=    8   IYMAX=    8   IZMAX=   46
   IXMIN=   -8   IYMIN=   -8   IZMIN=  -46


 real space projection operators:
  total allocation   :       5097.58 KBytes
  max/ min on nodes  :       1279.02       1270.19


 parallel 3D FFT for wavefunctions:
    minimum data exchange during FFTs selected (reduces bandwidth)
 parallel 3D FFT for charge:
    minimum data exchange during FFTs selected (reduces bandwidth)


 total amount of memory used by VASP MPI-rank0   164313. kBytes
=======================================================================

   base      :      30000. kBytes
   nonlr-proj:       2360. kBytes
   fftplans  :       2967. kBytes
   grid      :       6321. kBytes
   one-center:         93. kBytes
   wavefun   :     122572. kBytes
 
     INWAV:  cpu time    0.0000: real time    0.0000
 Broyden mixing: mesh for mixing (old mesh)
   NGX = 17   NGY = 17   NGZ = 93
  (NGX  = 56   NGY  = 56   NGZ  =288)
  gives a total of  26877 points

 initial charge density was supplied:
 charge density of overlapping atoms calculated
 number of electron     168.0000000 magnetization 
 keeping initial charge density in first step


--------------------------------------------------------------------------------------------------------


 Maximum index for non-local projection operator          544
 Maximum index for augmentation-charges          722 (set IRDMAX)


--------------------------------------------------------------------------------------------------------


 First call to EWALD:  gamma=   0.189
 Maximum number of real-space cells 5x 5x 1
 Maximum number of reciprocal cells 2x 2x 8

    FEWALD:  cpu time    0.0014: real time    0.0014


--------------------------------------- Iteration      1(   1)  ---------------------------------------


    POTLOK:  cpu time    0.0260: real time    0.0324
    SETDIJ:  cpu time    0.0035: real time    0.0035
     EDDAV:  cpu time   13.8050: real time   13.8061
       DOS:  cpu time    0.0077: real time    0.0077
    --------------------------------------------
      LOOP:  cpu time   13.8421: real time   13.8497

 eigenvalue-minimisations  : 19288
 total energy-change (2. order) : 0.1031425E+04  (-0.5832435E+04)
 number of electron     168.0000000 magnetization 
 augmentation part      168.0000000 magnetization 

 Free energy of the ion-electron system (eV)
  ---------------------------------------------------
  alpha Z        PSCENC =       324.87461712
  Ewald energy   TEWEN  =    101104.55921518
  -Hartree energ DENC   =   -113390.91106134
  -exchange      EXHF   =         0.00000000
  -V(xc)+E(xc)   XCENC  =        69.48135837
  PAW double counting   =     11288.27476651   -10829.50941267
  entropy T*S    EENTRO =         0.00323498
  eigenvalues    EBANDS =       574.01462664
  atomic energy  EATOM  =     11890.63736546
  Solvation  Ediel_sol  =         0.00000000
  ---------------------------------------------------
  free energy    TOTEN  =      1031.42471025 eV

  energy without entropy =     1031.42147527  energy(sigma->0) =     1031.42363192


--------------------------------------------------------------------------------------------------------




--------------------------------------- Iteration      1(   2)  ---------------------------------------


     EDDAV:  cpu time   16.4198: real time   16.4207
       DOS:  cpu time    0.0085: real time    0.0085
    --------------------------------------------
      LOOP:  cpu time   16.4283: real time   16.4292

 eigenvalue-minimisations  : 23976
 total energy-change (2. order) :-0.1058834E+04  (-0.9847756E+03)
 number of electron     168.0000000 magnetization 
 augmentation part      168.0000000 magnetization 

 Free energy of the ion-electron system (eV)
  ---------------------------------------------------
  alpha Z        PSCENC =       324.87461712
  Ewald energy   TEWEN  =    101104.55921518
  -Hartree energ DENC   =   -113390.91106134
  -exchange      EXHF   =         0.00000000
  -V(xc)+E(xc)   XCENC  =        69.48135837
  PAW double counting   =     11288.27476651   -10829.50941267
  entropy T*S    EENTRO =         0.00715095
  eigenvalues    EBANDS =      -484.82334133
  atomic energy  EATOM  =     11890.63736546
  Solvation  Ediel_sol  =         0.00000000
  ---------------------------------------------------
  free energy    TOTEN  =       -27.40934175 eV

  energy without entropy =      -27.41649270  energy(sigma->0) =      -27.41172540


--------------------------------------------------------------------------------------------------------




--------------------------------------- Iteration      1(   3)  ---------------------------------------


     EDDAV:  cpu time   15.8234: real time   15.8253
       DOS:  cpu time    0.0089: real time    0.0089
    --------------------------------------------
      LOOP:  cpu time   15.8323: real time   15.8342

 eigenvalue-minimisations  : 22792
 total energy-change (2. order) :-0.9161472E+02  (-0.8464703E+02)
 number of electron     168.0000000 magnetization 
 augmentation part      168.0000000 magnetization 

 Free energy of the ion-electron system (eV)
  ---------------------------------------------------
  alpha Z        PSCENC =       324.87461712
  Ewald energy   TEWEN  =    101104.55921518
  -Hartree energ DENC   =   -113390.91106134
  -exchange      EXHF   =         0.00000000
  -V(xc)+E(xc)   XCENC  =        69.48135837
  PAW double counting   =     11288.27476651   -10829.50941267
  entropy T*S    EENTRO =        -0.02105627
  eigenvalues    EBANDS =      -576.40985829
  atomic energy  EATOM  =     11890.63736546
  Solvation  Ediel_sol  =         0.00000000
  ---------------------------------------------------
  free energy    TOTEN  =      -119.02406593 eV

  energy without entropy =     -119.00300966  energy(sigma->0) =     -119.01704717


--------------------------------------------------------------------------------------------------------




--------------------------------------- Iteration      1(   4)  ---------------------------------------


     EDDAV:  cpu time   17.4802: real time   17.4832
       DOS:  cpu time    0.0089: real time    0.0089
    --------------------------------------------
      LOOP:  cpu time   17.4891: real time   17.4921

 eigenvalue-minimisations  : 25872
 total energy-change (2. order) :-0.4611515E+01  (-0.4377164E+01)
 number of electron     168.0000000 magnetization 
 augmentation part      168.0000000 magnetization 

 Free energy of the ion-electron system (eV)
  ---------------------------------------------------
  alpha Z        PSCENC =       324.87461712
  Ewald energy   TEWEN  =    101104.55921518
  -Hartree energ DENC   =   -113390.91106134
  -exchange      EXHF   =         0.00000000
  -V(xc)+E(xc)   XCENC  =        69.48135837
  PAW double counting   =     11288.27476651   -10829.50941267
  entropy T*S    EENTRO =        -0.03066673
  eigenvalues    EBANDS =      -581.01176253
  atomic energy  EATOM  =     11890.63736546
  Solvation  Ediel_sol  =         0.00000000
  ---------------------------------------------------
  free energy    TOTEN  =      -123.63558063 eV

  energy without entropy =     -123.60491390  energy(sigma->0) =     -123.62535839


--------------------------------------------------------------------------------------------------------




--------------------------------------- Iteration      1(   5)  ---------------------------------------


     EDDAV:  cpu time   17.5088: real time   17.5151
       DOS:  cpu time    0.0090: real time    0.0090
    CHARGE:  cpu time    0.7212: real time    0.7212
    MIXING:  cpu time    0.0011: real time    0.0011
    --------------------------------------------
      LOOP:  cpu time   18.2399: real time   18.2463

 eigenvalue-minimisations  : 25880
 total energy-change (2. order) :-0.1448057E+00  (-0.1434016E+00)
 number of electron     167.9999976 magnetization 
 augmentation part       47.0036639 magnetization 

 Broyden mixing:
  rms(total) = 0.43380E+01    rms(broyden)= 0.43379E+01
  rms(prec ) = 0.43810E+01
  weight for this iteration     100.00

 Free energy of the ion-electron system (eV)
  ---------------------------------------------------
  alpha Z        PSCENC =       324.87461712
  Ewald energy   TEWEN  =    101104.55921518
  -Hartree energ DENC   =   -113390.91106134
  -exchange      EXHF   =         0.00000000
  -V(xc)+E(xc)   XCENC  =        69.48135837
  PAW double counting   =     11288.27476651   -10829.50941267
  entropy T*S    EENTRO =        -0.03073044
  eigenvalues    EBANDS =      -581.15650454
  atomic energy  EATOM  =     11890.63736546
  Solvation  Ediel_sol  =         0.00000000
  ---------------------------------------------------
  free energy    TOTEN  =      -123.78038635 eV

  energy without entropy =     -123.74965591  energy(sigma->0) =     -123.77014287


--------------------------------------------------------------------------------------------------------




--------------------------------------- Iteration      1(   6)  ---------------------------------------


    POTLOK:  cpu time    0.0235: real time    0.0240
    SETDIJ:  cpu time    0.0036: real time    0.0036
     EDDAV:  cpu time   15.5196: real time   15.5199
       DOS:  cpu time    0.0098: real time    0.0098
    CHARGE:  cpu time    0.7525: real time    0.7525
    MIXING:  cpu time    0.0010: real time    0.0010
    --------------------------------------------
      LOOP:  cpu time   16.3100: real time   16.3109

 eigenvalue-minimisations  : 22220
 total energy-change (2. order) : 0.6612245E+01  (-0.3312955E+01)
 number of electron     167.9999969 magnetization 
 augmentation part       49.9592218 magnetization 

 Broyden mixing:
  rms(total) = 0.32367E+01    rms(broyden)= 0.32366E+01
  rms(prec ) = 0.33482E+01
  weight for this iteration     100.00

 eigenvalues of (default mixing * dielectric matrix)
  average eigenvalue GAMMA=   1.1895
  1.1895

 Free energy of the ion-electron system (eV)
  ---------------------------------------------------
  alpha Z        PSCENC =       324.87461712
  Ewald energy   TEWEN  =    101104.55921518
  -Hartree energ DENC   =   -113184.68941604
  -exchange      EXHF   =         0.00000000
  -V(xc)+E(xc)   XCENC  =        66.21379507
  PAW double counting   =     12555.73221024   -12120.70574928
  entropy T*S    EENTRO =        -0.02384562
  eigenvalues    EBANDS =      -753.76633362
  atomic energy  EATOM  =     11890.63736546
  Solvation  Ediel_sol  =         0.00000000
  ---------------------------------------------------
  free energy    TOTEN  =      -117.16814148 eV

  energy without entropy =     -117.14429586  energy(sigma->0) =     -117.16019294


--------------------------------------------------------------------------------------------------------




--------------------------------------- Iteration      1(   7)  ---------------------------------------


    POTLOK:  cpu time    0.0217: real time    0.0229
    SETDIJ:  cpu time    0.0034: real time    0.0034
     EDDAV:  cpu time   16.6592: real time   16.6600
       DOS:  cpu time    0.0091: real time    0.0091
    CHARGE:  cpu time    0.7212: real time    0.7212
    MIXING:  cpu time    0.0012: real time    0.0012
    --------------------------------------------
      LOOP:  cpu time   17.4159: real time   17.4179

 eigenvalue-minimisations  : 24284
 total energy-change (2. order) :-0.2228029E+02  (-0.9932274E+01)
 number of electron     167.9999981 magnetization 
 augmentation part       48.8133909 magnetization 

 Broyden mixing:
  rms(total) = 0.44007E+01    rms(broyden)= 0.44005E+01
  rms(prec ) = 0.49144E+01
  weight for this iteration     100.00

 eigenvalues of (default mixing * dielectric matrix)
  average eigenvalue GAMMA=   1.1184
  1.9730  0.2639

 Free energy of the ion-electron system (eV)
  ---------------------------------------------------
  alpha Z        PSCENC =       324.87461712
  Ewald energy   TEWEN  =    101104.55921518
  -Hartree energ DENC   =   -113385.42218256
  -exchange      EXHF   =         0.00000000
  -V(xc)+E(xc)   XCENC  =        65.66604742
  PAW double counting   =     13522.84191752   -13096.98262232
  entropy T*S    EENTRO =         0.00213830
  eigenvalues    EBANDS =      -565.62492293
  atomic energy  EATOM  =     11890.63736546
  Solvation  Ediel_sol  =         0.00000000
  ---------------------------------------------------
  free energy    TOTEN  =      -139.44842682 eV

  energy without entropy =     -139.45056512  energy(sigma->0) =     -139.44913959


--------------------------------------------------------------------------------------------------------




--------------------------------------- Iteration      1(   8)  ---------------------------------------


    POTLOK:  cpu time    0.0234: real time    0.0236
    SETDIJ:  cpu time    0.0035: real time    0.0035
     EDDAV:  cpu time   17.0238: real time   17.0243
       DOS:  cpu time    0.0097: real time    0.0097
    CHARGE:  cpu time    0.7190: real time    0.7190
    MIXING:  cpu time    0.0012: real time    0.0012
    --------------------------------------------
      LOOP:  cpu time   17.7807: real time   17.7813

 eigenvalue-minimisations  : 24956
 total energy-change (2. order) : 0.2002788E+02  (-0.4479129E+01)
 number of electron     167.9999969 magnetization 
 augmentation part       50.5811776 magnetization 

 Broyden mixing:
  rms(total) = 0.21017E+01    rms(broyden)= 0.21016E+01
  rms(prec ) = 0.23909E+01
  weight for this iteration     100.00

 eigenvalues of (default mixing * dielectric matrix)
  average eigenvalue GAMMA=   0.9333
  2.0511  0.4315  0.3174

 Free energy of the ion-electron system (eV)
  ---------------------------------------------------
  alpha Z        PSCENC =       324.87461712
  Ewald energy   TEWEN  =    101104.55921518
  -Hartree energ DENC   =   -113253.10821681
  -exchange      EXHF   =         0.00000000
  -V(xc)+E(xc)   XCENC  =        65.03588733
  PAW double counting   =     14485.15251895   -14070.28659330
  entropy T*S    EENTRO =        -0.02818054
  eigenvalues    EBANDS =      -666.25716038
  atomic energy  EATOM  =     11890.63736546
[...]
     21      -4.9380      2.00000
     22      -4.9091      2.00000
     23      -4.8442      2.00000
     24      -4.8158      2.00000
     25      -4.6908      2.00000
     26      -4.6498      2.00000
     27      -4.5320      2.00000
     28      -4.4497      2.00000
     29      -4.4059      2.00000
     30      -4.3549      2.00000
     31      -4.3007      2.00000
     32      -4.2501      2.00000
     33      -4.1612      2.00000
     34      -4.0359      2.00000
     35      -3.9783      2.00000
     36      -3.8903      2.00000
     37      -3.8057      2.00000
     38      -3.7326      2.00000
     39      -3.6225      2.00000
     40      -3.5949      2.00000
     41      -3.4881      2.00000
     42      -3.4587      2.00000
     43      -3.3700      2.00000
     44      -3.3197      2.00000
     45      -3.2665      2.00000
     46      -3.2001      2.00000
     47      -3.1032      2.00000
     48      -3.0031      2.00000
     49      -2.9690      2.00000
     50      -2.9295      2.00000
     51      -2.8703      2.00000
     52      -2.8255      2.00000
     53      -2.8041      2.00000
     54      -2.7555      2.00000
     55      -2.6224      2.00000
     56      -2.4936      2.00000
     57      -2.3261      2.00000
     58      -2.2497      2.00000
     59      -2.1509      2.00000
     60      -2.1357      2.00000
     61      -2.1269      2.00000
     62      -1.9658      2.00000
     63      -1.9090      2.00000
     64      -1.8478      2.00000
     65      -1.7971      2.00000
     66      -1.7387      2.00000
     67      -1.6285      2.00000
     68      -1.5744      2.00000
     69      -1.4837      2.00000
     70      -1.3732      2.00000
     71      -1.3107      2.00000
     72      -1.2499      2.00000
     73      -1.2000      2.00000
     74      -1.1588      2.00000
     75      -1.0873      2.00000
     76      -0.9509      2.00000
     77      -0.8471      2.00000
     78      -0.7992      2.00000
     79      -0.6683      2.00007
     80      -0.5083      2.00408
     81      -0.4545      2.01142
     82      -0.3628      2.04232
     83      -0.2839      2.07077
     84      -0.1149      1.62324
     85      -0.0847      1.41011
     86       0.0180      0.57182
     87       0.0705      0.23271
     88       0.1349     -0.00218
     89       0.3066     -0.03660
     90       0.5931     -0.00008
     91       0.9550     -0.00000
     92       1.2782     -0.00000
     93       2.0553     -0.00000
     94       2.1953     -0.00000
     95       2.6556     -0.00000
     96       3.0666     -0.00000
     97       3.7249     -0.00000
     98       4.0297     -0.00000
     99       4.3221     -0.00000
    100       4.5202     -0.00000

 k-point    96 :      -0.4375    0.1250    0.0000
  band No.  band energies     occupation 
      1     -13.5697      2.00000
      2      -8.2970      2.00000
      3      -7.5110      2.00000
      4      -7.4268      2.00000
      5      -6.6348      2.00000
      6      -6.5217      2.00000
      7      -6.3873      2.00000
      8      -6.1867      2.00000
      9      -6.0370      2.00000
     10      -5.9947      2.00000
     11      -5.7350      2.00000
     12      -5.6902      2.00000
     13      -5.5622      2.00000
     14      -5.4730      2.00000
     15      -5.4411      2.00000
     16      -5.3986      2.00000
     17      -5.3070      2.00000
     18      -5.1675      2.00000
     19      -5.1352      2.00000
     20      -5.0389      2.00000
     21      -4.9093      2.00000
     22      -4.8720      2.00000
     23      -4.8426      2.00000
     24      -4.7441      2.00000
     25      -4.6568      2.00000
     26      -4.6211      2.00000
     27      -4.5104      2.00000
     28      -4.4808      2.00000
     29      -4.4275      2.00000
     30      -4.3408      2.00000
     31      -4.3032      2.00000
     32      -4.2661      2.00000
     33      -4.1642      2.00000
     34      -4.0309      2.00000
     35      -3.9940      2.00000
     36      -3.9418      2.00000
     37      -3.8225      2.00000
     38      -3.7620      2.00000
     39      -3.6329      2.00000
     40      -3.5729      2.00000
     41      -3.5032      2.00000
     42      -3.4513      2.00000
     43      -3.3711      2.00000
     44      -3.3315      2.00000
     45      -3.2748      2.00000
     46      -3.2254      2.00000
     47      -3.0562      2.00000
     48      -2.9692      2.00000
     49      -2.9569      2.00000
     50      -2.8991      2.00000
     51      -2.8626      2.00000
     52      -2.8380      2.00000
     53      -2.7907      2.00000
     54      -2.6757      2.00000
     55      -2.6330      2.00000
     56      -2.5683      2.00000
     57      -2.3287      2.00000
     58      -2.1996      2.00000
     59      -2.1708      2.00000
     60      -2.1425      2.00000
     61      -2.0861      2.00000
     62      -2.0076      2.00000
     63      -1.8941      2.00000
     64      -1.8468      2.00000
     65      -1.8306      2.00000
     66      -1.7842      2.00000
     67      -1.5888      2.00000
     68      -1.5502      2.00000
     69      -1.4944      2.00000
     70      -1.4254      2.00000
     71      -1.3274      2.00000
     72      -1.2188      2.00000
     73      -1.2116      2.00000
     74      -1.1463      2.00000
     75      -1.0822      2.00000
     76      -0.9648      2.00000
     77      -0.8570      2.00000
     78      -0.7724      2.00000
     79      -0.7414      2.00001
     80      -0.6012      2.00046
     81      -0.4575      2.01085
     82      -0.3074      2.06600
     83      -0.2199      2.03162
     84      -0.1221      1.66846
     85      -0.0597      1.21166
     86      -0.0284      0.94797
     87       0.0795      0.18782
     88       0.1882     -0.06650
     89       0.3087     -0.03571
     90       0.5866     -0.00010
     91       0.9379     -0.00000
     92       1.2527     -0.00000
     93       2.0345     -0.00000
     94       2.1304     -0.00000
     95       2.6524     -0.00000
     96       3.0238     -0.00000
     97       3.6006     -0.00000
     98       3.9784     -0.00000
     99       4.3783     -0.00000
    100       4.5015     -0.00000


--------------------------------------------------------------------------------------------------------


 soft charge-density along one line, spin component           1
         0         1         2         3         4         5         6         7         8         9
 total charge-density along one line
 
 pseudopotential strength for first ion, spin component:           1
 -8.047  -0.027   0.021  -0.033   0.003  -8.193  -0.026   0.020
 -0.027  -8.079  -0.020  -0.030   0.026  -0.026  -8.224  -0.019
  0.021  -0.020  -8.124  -0.014  -0.009   0.020  -0.019  -8.268
 -0.033  -0.030  -0.014  -8.050  -0.012  -0.033  -0.029  -0.014
  0.003   0.026  -0.009  -0.012  -8.043   0.003   0.026  -0.009
 -8.193  -0.026   0.020  -0.033   0.003  -8.323  -0.026   0.020
 -0.026  -8.224  -0.019  -0.029   0.026  -0.026  -8.353  -0.019
  0.020  -0.019  -8.268  -0.014  -0.009   0.020  -0.019  -8.397
 -0.033  -0.029  -0.014  -8.196  -0.012  -0.032  -0.029  -0.014
  0.003   0.026  -0.009  -0.012  -8.189   0.003   0.025  -0.009
  0.012   0.019   0.014   0.013  -0.005   0.012   0.019   0.014
  0.017   0.028   0.021   0.018  -0.008   0.017   0.028   0.021
  0.006   0.007  -0.002   0.002  -0.007   0.006   0.007  -0.002
  0.002   0.010   0.008   0.007  -0.001   0.002   0.010   0.008
  0.007   0.002  -0.002   0.005   0.003   0.007   0.002  -0.002
  0.008   0.010  -0.003   0.003  -0.009   0.008   0.010  -0.003
  0.003   0.013   0.012   0.009  -0.001   0.003   0.014   0.013
  0.009   0.003  -0.002   0.007   0.004   0.009   0.003  -0.002
 total augmentation occupancy for first ion, spin component:           1
  5.861   0.473   0.626   0.299  -0.092  -3.848  -0.644  -0.553  -0.475   0.139  -0.604   0.218  -0.137  -0.192  -0.066   0.011
  0.473   6.456   1.207   0.733  -0.168  -0.649  -4.248  -1.255  -0.908   0.246  -1.177   0.368  -0.049  -0.454  -0.163   0.011
  0.626   1.207   6.384   0.646  -0.260  -0.556  -1.247  -4.826  -0.706   0.231  -0.766   0.357  -0.162  -0.576  -0.106   0.003
  0.299   0.733   0.646   6.076  -0.112  -0.481  -0.908  -0.711  -3.679   0.126  -0.759   0.227  -0.159  -0.262   0.119   0.008
 -0.092  -0.168  -0.260  -0.112   5.661   0.139   0.242   0.230   0.129  -3.585   0.247  -0.098   0.099   0.094   0.057  -0.011
 -3.848  -0.649  -0.556  -0.481   0.139   3.734   0.791   0.490   0.629  -0.177   0.562  -0.207   0.132   0.176   0.066  -0.005
 -0.644  -4.248  -1.247  -0.908   0.242   0.791   3.994   1.277   1.053  -0.315   1.127  -0.379   0.070   0.420   0.157  -0.005
 -0.553  -1.255  -4.826  -0.711   0.230   0.490   1.277   5.042   0.754  -0.203   0.661  -0.325   0.142   0.540   0.095  -0.006
 -0.475  -0.908  -0.706  -3.679   0.129   0.629   1.053   0.754   3.269  -0.135   0.731  -0.236   0.154   0.242  -0.095  -0.006
  0.139   0.246   0.231   0.126  -3.585  -0.177  -0.315  -0.203  -0.135   3.422  -0.227   0.090  -0.093  -0.088  -0.058   0.005
 -0.604  -1.177  -0.766  -0.759   0.247   0.562   1.127   0.661   0.731  -0.227   2.942  -0.785   0.099   0.141   0.053  -0.004
  0.218   0.368   0.357   0.227  -0.098  -0.207  -0.379  -0.325  -0.236   0.090  -0.785   0.255  -0.060  -0.069  -0.036   0.002
 -0.137  -0.049  -0.162  -0.159   0.099   0.132   0.070   0.142   0.154  -0.093   0.099  -0.060   0.272   0.042   0.020  -0.008
 -0.192  -0.454  -0.576  -0.262   0.094   0.176   0.420   0.540   0.242  -0.088   0.141  -0.069   0.042   0.292   0.029  -0.002
 -0.066  -0.163  -0.106   0.119   0.057   0.066   0.157   0.095  -0.095  -0.058   0.053  -0.036   0.020   0.029   0.255  -0.001
  0.011   0.011   0.003   0.008  -0.011  -0.005  -0.005  -0.006  -0.006   0.005  -0.004   0.002  -0.008  -0.002  -0.001   0.000
  0.009   0.026   0.023   0.016  -0.004  -0.007  -0.017  -0.019  -0.010   0.003  -0.007   0.004  -0.002  -0.011  -0.001   0.000
  0.009   0.008   0.002   0.004   0.002  -0.003  -0.007  -0.003   0.001   0.001  -0.002   0.001  -0.001  -0.001  -0.007   0.000


------------------------ aborting loop because EDIFF is reached ----------------------------------------



 DIPCOR: dipole corrections for dipol
 direction  3 min pos    22,
 dipolmoment           0.000000      0.000000     -0.405910 electrons x Angstroem
 Tr[quadrupol]      -937.038288

 energy correction for charged system         0.000000 eV
 dipol+quadrupol energy correction            0.018088 eV
 added-field ion interaction          0.000000 eV  (added to PSCEN)

 
  *************** adding dipol energy to TOTEN NOW **************** 
    CHARGE:  cpu time    0.7195: real time    0.7195
    FORLOC:  cpu time    0.0070: real time    0.0070
    FORNL :  cpu time    3.1882: real time    3.1882
    STRESS:  cpu time    9.6004: real time    9.6076
    FORCOR:  cpu time    0.0289: real time    0.0289
    FORHAR:  cpu time    0.0119: real time    0.0119
    MIXING:  cpu time    0.0044: real time    0.0044
    OFIELD:  cpu time    0.0000: real time    0.0000

  FORCE on cell =-STRESS in cart. coord.  units (eV):
  Direction    XX          YY          ZZ          XY          YZ          ZX
  --------------------------------------------------------------------------------------
  Alpha Z   324.87462   324.87462   324.87462
  Ewald  109967.10591109979.82660************    33.00708    19.52260    11.52079
  Hartree112495.20359112502.05067************    13.66569     4.70969     3.36205
  E(xc)    -737.26722  -737.21220  -741.22893     0.14431     0.03763    -0.00570
  Local  ************************227592.57025   -42.53243   -19.77019   -12.54719
  n-local    47.06606    46.96064    30.59080     0.30064    -0.28814    -0.17029
  augment   836.09465   835.92106   859.67549    -1.05320    -1.15227    -0.55131
  Kinetic  2385.73401  2383.91002  2448.59360    -3.87438    -2.06420    -1.03182
  Fock        0.00000     0.00000     0.00000     0.00000     0.00000     0.00000
  -------------------------------------------------------------------------------------
  Total      -9.64206   -10.20953    -0.70644    -0.34228     0.99513     0.57653
  in kB     -18.74501   -19.84823    -1.37338    -0.66543     1.93462     1.12083
  external pressure =      -13.32 kB  Pullay stress =        0.00 kB


 VOLUME and BASIS-vectors are now :
 -----------------------------------------------------------------------------
  energy-cutoff  :      350.00
  volume of cell :      824.13
      direct lattice vectors                 reciprocal lattice vectors
     5.557859300  0.000000000  0.000000000     0.179925390 -0.103879972  0.000000000
     2.778929650  4.813247345  0.000000000     0.000000000  0.207759944  0.000000000
     0.000000000  0.000000000 30.806959674     0.000000000  0.000000000  0.032460198

  length of vectors
     5.557859300  5.557859300 30.806959674     0.207759944  0.207759944  0.032460198


 FORCES acting on ions
    electron-ion (+dipol)            ewald-force                    non-local-force                 convergence-correction
 -----------------------------------------------------------------------------------------------
   0.782E+01 0.212E+02 -.283E+04   -.867E+01 -.224E+02 0.283E+04   0.574E+00 0.691E+00 -.149E+00   -.192E-03 -.205E-03 -.360E-03
   0.326E-01 0.225E+01 -.134E+04   -.553E-01 -.354E+01 0.134E+04   0.396E+00 0.192E+01 -.242E+01   0.182E-04 0.619E-04 -.515E-02
   -.183E+02 -.279E+02 -.335E+03   0.193E+02 0.295E+02 0.336E+03   -.964E+00 -.152E+01 -.334E+00   -.424E-04 -.380E-04 -.100E-02
   0.603E+01 -.419E+02 -.348E+03   -.664E+01 0.465E+02 0.351E+03   0.592E+00 -.469E+01 -.273E+01   0.416E-05 -.556E-04 -.127E-02
   0.421E+02 0.259E+02 -.339E+03   -.469E+02 -.288E+02 0.340E+03   0.472E+01 0.293E+01 -.608E+00   0.686E-04 0.396E-04 -.125E-02
   -.396E+02 0.259E+02 -.343E+03   0.441E+02 -.288E+02 0.345E+03   -.450E+01 0.288E+01 -.179E+01   -.603E-04 0.325E-04 -.127E-02
   -.759E+00 0.129E+01 0.265E+04   0.750E+00 -.129E+01 -.265E+04   0.182E-01 0.111E-01 -.141E+00   0.538E-04 0.145E-03 0.159E-01
   0.153E+01 -.813E+00 -.255E+04   -.179E+01 0.106E+01 0.255E+04   0.224E+00 -.266E+00 0.103E+01   -.493E-03 -.172E-03 0.157E-02
   -.634E+01 -.692E+01 -.259E+04   0.641E+01 0.719E+01 0.259E+04   -.667E-01 -.426E+00 0.210E+00   0.490E-03 0.920E-04 0.499E-03
   0.422E+01 -.160E+01 -.256E+04   -.380E+01 0.120E+01 0.256E+04   -.486E+00 0.503E+00 0.114E+01   0.171E-03 0.328E-03 0.123E-02
   -.420E+01 0.461E-01 -.702E+03   0.418E+01 -.197E-02 0.702E+03   0.105E+00 -.690E-01 0.173E+00   -.831E-03 -.313E-03 0.377E-01
   0.635E+00 -.377E+00 0.295E+04   -.622E+00 0.349E+00 -.294E+04   0.407E-02 0.759E-01 -.614E+00   -.959E-04 -.340E-03 0.174E-01
   -.179E+01 -.315E+01 -.703E+03   0.183E+01 0.315E+01 0.703E+03   -.307E-01 0.507E-01 0.393E+00   -.151E-03 -.260E-03 0.381E-01
   -.142E+01 -.663E+01 0.115E+04   0.148E+01 0.689E+01 -.115E+04   -.409E-01 -.477E-01 -.727E-01   0.278E-03 -.211E-02 0.551E-01
   0.139E+01 -.266E+00 0.114E+04   -.141E+01 0.328E+00 -.114E+04   0.257E-01 -.441E-01 -.482E+00   -.262E-03 -.205E-03 0.537E-01
   0.533E+01 0.481E+01 0.115E+04   -.547E+01 -.490E+01 -.115E+04   -.953E-03 -.115E-01 -.206E+00   0.162E-02 0.994E-03 0.554E-01
   -.464E+01 0.304E+01 0.115E+04   0.483E+01 -.312E+01 -.115E+04   -.638E-01 -.189E-01 -.412E+00   -.162E-02 0.131E-02 0.552E-01
   -.221E+01 -.111E+00 0.295E+04   0.209E+01 0.139E+00 -.295E+04   0.187E+00 -.405E-01 -.675E+00   -.432E-03 0.861E-04 0.171E-01
   0.158E+01 -.821E+00 0.295E+04   -.152E+01 0.831E+00 -.295E+04   -.963E-01 -.352E-01 -.698E+00   0.437E-03 0.158E-03 0.171E-01
   0.128E+01 0.909E+00 -.695E+03   -.130E+01 -.895E+00 0.695E+03   0.445E-01 -.945E-02 0.190E+00   0.153E-03 0.702E-03 0.380E-01
   0.696E+01 0.337E+01 -.734E+03   -.677E+01 -.332E+01 0.733E+03   -.363E+00 -.947E-01 -.202E+00   0.790E-03 -.148E-03 0.365E-01
 -----------------------------------------------------------------------------------------------
   -.266E+00 -.178E+01 0.798E+01   -.113E-12 -.346E-13 0.568E-12   0.282E+00 0.179E+01 -.840E+01   -.926E-04 0.107E-03 0.430E+00
 
 
 POSITION                                       TOTAL-FORCE (eV/Angst)
 -----------------------------------------------------------------------------------
      2.75740      4.76560     19.27079        -0.276541     -0.568232     -0.584748
      0.07558      0.08708     21.51154         0.372740      0.619900      0.678289
      0.61413      0.95947     20.48197         0.018823      0.045856      0.737638
      5.52046      1.03687     22.05953        -0.013536     -0.092093      0.176959
      7.48283      4.32725     21.62428         0.001209      0.029578     -0.167034
      3.73019      4.34396     21.86312        -0.007976     -0.000166      0.003077
      2.80194      0.01901     12.15081         0.008726      0.016660      1.154419
      4.16366      2.38171     19.04874        -0.043130     -0.019105     -0.209549
      1.39470      2.36426     19.13278         0.010817     -0.158943     -0.115298
      5.56913      4.77090     19.06249        -0.069410      0.104786     -0.169203
      4.20043      4.01872     16.77780         0.083793     -0.025530     -0.046648
      0.02614      0.01726     12.15283         0.016700      0.047376     -0.098938
      5.59856      1.60561     16.77358         0.012076      0.053080     -0.216282
      5.59784      3.22883     14.47469         0.023473      0.208685     -0.319073
      2.81509      3.22856     14.48986         0.004088      0.017039      0.033513
      4.20723      0.82179     14.47440        -0.141699     -0.098140     -0.292492
      1.42712      0.82077     14.48059         0.120616     -0.099101     -0.295604
      4.18682      2.42485     12.13498         0.060653     -0.012382     -0.078424
      1.41593      2.42408     12.14869        -0.030642     -0.025788     -0.090373
      2.80985      1.60013     16.76732         0.019090      0.004747      0.118644
      7.01706      4.01961     16.82989        -0.169868     -0.048228     -0.218874
 -----------------------------------------------------------------------------------
    total drift:                                0.015839      0.006610      0.006442


--------------------------------------------------------------------------------------------------------



  FREE ENERGIE OF THE ION-ELECTRON SYSTEM (eV)
  ---------------------------------------------------
  free  energy   TOTEN  =      -114.30468105 eV

  energy  without entropy=     -114.26252388  energy(sigma->0) =     -114.29062866
 


--------------------------------------------------------------------------------------------------------


    POTLOK:  cpu time    0.0264: real time    0.0265


--------------------------------------------------------------------------------------------------------


     LOOP+:  cpu time  586.3341: real time  586.4587
    4ORBIT:  cpu time    0.0000: real time    0.0000

 total amount of memory used by VASP MPI-rank0   164313. kBytes
=======================================================================

   base      :      30000. kBytes
   nonlr-proj:       2360. kBytes
   fftplans  :       2967. kBytes
   grid      :       6321. kBytes
   one-center:         93. kBytes
   wavefun   :     122572. kBytes
 
  
  
 General timing and accounting informations for this job:
 ========================================================
  
                  Total CPU time used (sec):      594.094
                            User time (sec):      591.796
                          System time (sec):        2.298
                         Elapsed time (sec):      594.419
  
                   Maximum memory used (kb):      211440.
                   Average memory used (kb):           0.
  
                          Minor page faults:        71560
                          Major page faults:            0
                 Voluntary context switches:          869
