       N       E                     dE             d eps       ncg     rms          rms(c)
DAV:   1     0.103112328303E+04    0.10311E+04   -0.58328E+04 19296   0.103E+03
DAV:   2    -0.276835125972E+02   -0.10588E+04   -0.98340E+03 23912   0.260E+02
DAV:   3    -0.119603512354E+03   -0.91920E+02   -0.84991E+02 22808   0.760E+01
DAV:   4    -0.124226705642E+03   -0.46232E+01   -0.43926E+01 25816   0.172E+01
DAV:   5    -0.124372007880E+03   -0.14530E+00   -0.14380E+00 26124   0.299E+00    0.433E+01
DAV:   6    -0.117823115238E+03    0.65489E+01   -0.31809E+01 22540   0.223E+01    0.317E+01
DAV:   7    -0.141401308386E+03   -0.23578E+02   -0.96022E+01 27724   0.559E+01    0.453E+01
DAV:   8    -0.120137322987E+03    0.21264E+02   -0.30179E+01 29476   0.381E+01    0.193E+01
DAV:   9    -0.132578629505E+03   -0.12441E+02   -0.47159E+01 29732   0.472E+01    0.329E+01
DAV:  10    -0.117733392614E+03    0.14845E+02   -0.32765E+01 32196   0.414E+01    0.142E+01
DAV:  11    -0.115513139033E+03    0.22203E+01   -0.77610E+00 25948   0.112E+01    0.570E+00
DAV:  12    -0.115585947553E+03   -0.72809E-01   -0.24555E+00 27468   0.707E+00    0.743E+00
DAV:  13    -0.115240184350E+03    0.34576E+00   -0.16102E+00 27792   0.451E+00    0.330E+00
DAV:  14    -0.115220755781E+03    0.19429E-01   -0.56094E-01 21388   0.307E+00    0.274E+00
DAV:  15    -0.115194714205E+03    0.26042E-01   -0.11813E-01 22184   0.156E+00    0.178E+00
DAV:  16    -0.115178853441E+03    0.15861E-01   -0.12015E-01 26336   0.143E+00    0.155E+00
DAV:  17    -0.115167740423E+03    0.11113E-01   -0.33327E-02 21904   0.769E-01    0.925E-01
DAV:  18    -0.115164876963E+03    0.28635E-02   -0.31165E-02 24960   0.719E-01    0.683E-01
DAV:  19    -0.115162007943E+03    0.28690E-02   -0.53610E-03 24312   0.318E-01    0.397E-01
DAV:  20    -0.115161254625E+03    0.75332E-03   -0.31954E-03 21832   0.247E-01    0.251E-01
DAV:  21    -0.115160844358E+03    0.41027E-03   -0.96746E-04 23636   0.139E-01    0.157E-01
DAV:  22    -0.115160647101E+03    0.19726E-03   -0.51903E-04 26516   0.101E-01    0.109E-01
DAV:  23    -0.115160687051E+03   -0.39950E-04   -0.35065E-04 21996   0.774E-02    0.637E-02
DAV:  24    -0.115160822358E+03   -0.13531E-03   -0.15170E-04 20840   0.529E-02    0.575E-02
DAV:  25    -0.115160996430E+03   -0.17407E-03   -0.18285E-04 19844   0.509E-02    0.342E-02
DAV:  26    -0.115161165217E+03   -0.16879E-03   -0.40037E-05 15080   0.258E-02    0.276E-02
DAV:  27    -0.115161278327E+03   -0.11311E-03   -0.19355E-05 12812   0.195E-02    0.232E-02
DAV:  28    -0.115161436009E+03   -0.15768E-03   -0.22466E-05 12836   0.174E-02    0.146E-02
DAV:  29    -0.115161632843E+03   -0.19683E-03   -0.24955E-05 14448   0.184E-02    0.161E-02
DAV:  30    -0.115161723397E+03   -0.90554E-04   -0.83439E-06 12624   0.120E-02    0.961E-03
DAV:  31    -0.115161809816E+03   -0.86419E-04   -0.77325E-06 13216   0.909E-03    0.915E-03
DAV:  32    -0.115161847689E+03   -0.37873E-04   -0.29296E-06 12568   0.693E-03    0.357E-03
DAV:  33    -0.115161888798E+03   -0.41109E-04   -0.21452E-06 12336   0.437E-03    0.380E-03
DAV:  34    -0.115161902425E+03   -0.13626E-04   -0.56802E-07 11904   0.268E-03    0.444E-03
DAV:  35    -0.115161915815E+03   -0.13390E-04   -0.41702E-07 11768   0.213E-03    0.313E-03
DAV:  36    -0.115161925402E+03   -0.95869E-05   -0.23002E-07 11920   0.148E-03
   1 F= -.11514377E+03 E0= -.11513158E+03  d E =-.365744E-01
