       N       E                     dE             d eps       ncg     rms          rms(c)
DAV:   1     0.102522856909E+04    0.10252E+04   -0.58280E+04 19288   0.103E+03
DAV:   2    -0.290036934711E+02   -0.10542E+04   -0.97861E+03 23904   0.259E+02
DAV:   3    -0.121095782404E+03   -0.92092E+02   -0.85120E+02 22896   0.760E+01
DAV:   4    -0.125562472746E+03   -0.44667E+01   -0.42552E+01 25576   0.170E+01
DAV:   5    -0.125705914426E+03   -0.14344E+00   -0.14209E+00 26764   0.299E+00    0.428E+01
DAV:   6    -0.118804635384E+03    0.69013E+01   -0.31151E+01 22148   0.211E+01    0.318E+01
DAV:   7    -0.143596993278E+03   -0.24792E+02   -0.11176E+02 22668   0.596E+01    0.447E+01
DAV:   8    -0.124363694400E+03    0.19233E+02   -0.45430E+01 23468   0.339E+01    0.266E+01
DAV:   9    -0.127654432359E+03   -0.32907E+01   -0.66842E+01 27616   0.381E+01    0.276E+01
DAV:  10    -0.122455539484E+03    0.51989E+01   -0.42271E+01 26916   0.371E+01    0.243E+01
DAV:  11    -0.117322834414E+03    0.51327E+01   -0.14786E+01 29720   0.209E+01    0.128E+01
DAV:  12    -0.116982967757E+03    0.33987E+00   -0.76367E+00 27896   0.126E+01    0.111E+01
DAV:  13    -0.116190532608E+03    0.79244E+00   -0.32828E+00 27604   0.762E+00    0.571E+00
DAV:  14    -0.115935302469E+03    0.25523E+00   -0.14013E+00 22024   0.541E+00    0.371E+00
DAV:  15    -0.115929736364E+03    0.55661E-02   -0.11220E-01 22132   0.129E+00    0.308E+00
DAV:  16    -0.115918457285E+03    0.11279E-01   -0.12289E-02 22832   0.470E-01    0.262E+00
DAV:  17    -0.115891032126E+03    0.27425E-01   -0.79784E-02 21520   0.131E+00    0.990E-01
DAV:  18    -0.115885205816E+03    0.58263E-02   -0.42628E-02 21136   0.884E-01    0.593E-01
DAV:  19    -0.115882848214E+03    0.23576E-02   -0.99128E-03 22536   0.409E-01    0.412E-01
DAV:  20    -0.115882444496E+03    0.40372E-03   -0.29636E-03 26032   0.247E-01    0.383E-01
DAV:  21    -0.115882202873E+03    0.24162E-03   -0.15917E-03 22700   0.171E-01    0.258E-01
DAV:  22    -0.115881876071E+03    0.32680E-03   -0.28543E-03 25344   0.214E-01    0.217E-01
DAV:  23    -0.115881617591E+03    0.25848E-03   -0.53470E-04 21456   0.939E-02    0.113E-01
DAV:  24    -0.115881588552E+03    0.29040E-04   -0.44440E-04 20000   0.788E-02    0.600E-02
DAV:  25    -0.115881687001E+03   -0.98449E-04   -0.13124E-04 21384   0.502E-02    0.344E-02
DAV:  26    -0.115881768462E+03   -0.81461E-04   -0.10247E-04 19300   0.387E-02    0.362E-02
DAV:  27    -0.115881903086E+03   -0.13462E-03   -0.57537E-05 17308   0.338E-02    0.289E-02
DAV:  28    -0.115882006836E+03   -0.10375E-03   -0.27468E-05 13892   0.189E-02    0.246E-02
DAV:  29    -0.115882107295E+03   -0.10046E-03   -0.11391E-05 12488   0.146E-02    0.175E-02
DAV:  30    -0.115882216346E+03   -0.10905E-03   -0.12986E-05 13016   0.140E-02    0.122E-02
DAV:  31    -0.115882291536E+03   -0.75190E-04   -0.68414E-06 11952   0.108E-02    0.122E-02
DAV:  32    -0.115882325766E+03   -0.34230E-04   -0.21052E-06 11320   0.575E-03    0.102E-02
DAV:  33    -0.115882369976E+03   -0.44210E-04   -0.18535E-06 11868   0.439E-03    0.100E-02
DAV:  34    -0.115882388322E+03   -0.18346E-04   -0.10707E-06 11152   0.372E-03    0.711E-03
DAV:  35    -0.115882396443E+03   -0.81211E-05   -0.61806E-07 10584   0.286E-03
   1 F= -.11587830E+03 E0= -.11586533E+03  d E =-.388939E-01
