       N       E                     dE             d eps       ncg     rms          rms(c)
DAV:   1     0.977885592870E+03    0.97789E+03   -0.56617E+04 10024   0.103E+03
DAV:   2    -0.181484803452E+02   -0.99603E+03   -0.91517E+03 12280   0.261E+02
DAV:   3    -0.949830967253E+02   -0.76835E+02   -0.69326E+02 11888   0.707E+01
DAV:   4    -0.982523012787E+02   -0.32692E+01   -0.31232E+01 13672   0.152E+01
DAV:   5    -0.983347648013E+02   -0.82464E-01   -0.82152E-01 12840   0.235E+00    0.429E+01
DAV:   6    -0.947599805351E+02    0.35748E+01   -0.19846E+01 11360   0.197E+01    0.324E+01
DAV:   7    -0.137983136019E+03   -0.43223E+02   -0.12678E+02 15208   0.760E+01    0.551E+01
DAV:   8    -0.118536233074E+03    0.19447E+02   -0.49997E+01 14328   0.455E+01    0.433E+01
DAV:   9    -0.107416296491E+03    0.11120E+02   -0.43838E+01 16400   0.444E+01    0.295E+01
DAV:  10    -0.936524521648E+02    0.13764E+02   -0.24983E+01 13320   0.319E+01    0.129E+01
DAV:  11    -0.922809465668E+02    0.13715E+01   -0.95959E+00 14688   0.163E+01    0.742E+00
DAV:  12    -0.922252946670E+02    0.55652E-01   -0.87480E-01 12120   0.417E+00    0.556E+00
DAV:  13    -0.921632284695E+02    0.62066E-01   -0.87378E-01 12144   0.451E+00    0.400E+00
DAV:  14    -0.921797443282E+02   -0.16516E-01   -0.16644E-01 13288   0.194E+00    0.373E+00
DAV:  15    -0.920921472279E+02    0.87597E-01   -0.13567E-01 14008   0.184E+00    0.172E+00
DAV:  16    -0.920902509679E+02    0.18963E-02   -0.82927E-02 11872   0.138E+00    0.106E+00
DAV:  17    -0.920811342882E+02    0.91167E-02   -0.26949E-02 11544   0.854E-01    0.527E-01
DAV:  18    -0.920806956205E+02    0.43867E-03   -0.34021E-03 11128   0.315E-01    0.456E-01
DAV:  19    -0.920789700651E+02    0.17256E-02   -0.51037E-03 12696   0.345E-01    0.280E-01
DAV:  20    -0.920793346735E+02   -0.36461E-03   -0.23142E-03 12728   0.246E-01    0.295E-01
DAV:  21    -0.920787802400E+02    0.55443E-03   -0.58523E-04 12304   0.117E-01    0.185E-01
DAV:  22    -0.920785733511E+02    0.20689E-03   -0.28733E-04 11336   0.699E-02    0.104E-01
DAV:  23    -0.920785193190E+02    0.54032E-04   -0.25392E-04 12272   0.673E-02    0.437E-02
DAV:  24    -0.920785313800E+02   -0.12061E-04   -0.23584E-05  6136   0.241E-02    0.299E-02
DAV:  25    -0.920785539055E+02   -0.22526E-04   -0.15351E-05  6208   0.189E-02    0.348E-02
DAV:  26    -0.920785757120E+02   -0.21806E-04   -0.10503E-05  5992   0.160E-02    0.192E-02
DAV:  27    -0.920786002415E+02   -0.24529E-04   -0.51639E-06  6056   0.865E-03    0.116E-02
DAV:  28    -0.920786165412E+02   -0.16300E-04   -0.19442E-06  5832   0.557E-03    0.670E-03
DAV:  29    -0.920786405484E+02   -0.24007E-04   -0.17487E-06  6008   0.479E-03    0.400E-03
DAV:  30    -0.920786703680E+02   -0.29820E-04   -0.29654E-06  6256   0.555E-03    0.614E-03
DAV:  31    -0.920786821748E+02   -0.11807E-04   -0.97735E-07  6072   0.355E-03    0.474E-03
DAV:  32    -0.920786881342E+02   -0.59594E-05   -0.66414E-07  5800   0.239E-03
   1 F= -.92078662E+02 E0= -.92066084E+02  d E =-.377350E-01
