 vasp.5.4.4.18Apr17-6-g9f103f2a35 (build Apr 28 2017 10:53:45) complex          
  
 executed on             LinuxIFC date 2019.07.18  17:23:16
 running on   16 total cores
 distrk:  each k-point on   16 cores,    1 groups
 distr:  one band on NCORES_PER_BAND=   4 cores,    4 groups


--------------------------------------------------------------------------------------------------------


 INCAR:
 POTCAR:    PAW_PBE Au 04Oct2007                  
 POTCAR:    PAW_PBE C 08Apr2002                   
 POTCAR:    PAW_PBE H 15Jun2001                   
 POTCAR:    PAW_PBE Ir 06Sep2000                  
 POTCAR:    PAW_PBE Pt 04Feb2005                  
 POTCAR:    PAW_PBE Au 04Oct2007                  
   VRHFIN =Au: s1d10                                                            
   LEXCH  = PE                                                                  
   EATOM  =   926.0867 eV,   68.0654 Ry                                         
                                                                                
   TITEL  = PAW_PBE Au 04Oct2007                                                
   LULTRA =        F    use ultrasoft PP ?                                      
   IUNSCR =        1    unscreen: 0-lin 1-nonlin 2-no                           
   RPACOR =    2.330    partial core radius                                     
   POMASS =  196.966; ZVAL   =   11.000    mass and valenz                      
   RCORE  =    2.500    outmost cutoff radius                                   
   RWIGS  =    2.840; RWIGS  =    1.503    wigner-seitz radius (au A)           
   ENMAX  =  229.943; ENMIN  =  172.457 eV                                      
   ICORE  =        3    local potential                                         
   LCOR   =        T    correct aug charges                                     
   LPAW   =        T    paw PP                                                  
   EAUG   =  356.670                                                            
   DEXC   =    0.000                                                            
   RMAX   =    2.562    core radius for proj-oper                               
   RAUG   =    1.300    factor for augmentation sphere                          
   RDEP   =    2.598    radius for radial grids                                 
   RDEPT  =    2.193    core radius for aug-charge                              
                                                                                
   Atomic configuration                                                         
   16 entries                                                                   
     n  l   j            E        occ.                                          
     1  0  0.50    -80748.5001   2.0000                                         
     2  0  0.50    -14244.7466   2.0000                                         
     2  1  1.50    -12310.9591   6.0000                                         
     3  0  0.50     -3362.1768   2.0000                                         
     3  1  1.50     -2801.5463   6.0000                                         
     3  2  2.50     -2203.8206  10.0000                                         
     4  0  0.50      -729.8168   2.0000                                         
     4  1  1.50      -546.0527   6.0000                                         
     4  2  2.50      -325.7302  10.0000                                         
     4  3  3.50       -81.1472  14.0000                                         
     5  0  0.50      -108.3201   2.0000                                         
     5  1  1.50       -59.7479   6.0000                                         
     5  2  2.50        -6.8783  10.0000                                         
     6  0  0.50        -5.7602   1.0000                                         
     6  1  1.50        -6.8029   0.0000                                         
     5  3  2.50        -1.3606   0.0000                                         
   Description                                                                  
     l       E           TYP  RCUT    TYP  RCUT                                 
     2     -6.8782861     23  2.500                                             
     2     -8.2388687     23  2.500                                             
     0     -5.7601759     23  2.500                                             
     0     -0.8493231     23  2.500                                             
     1     -2.7211652     23  2.500                                             
     1     27.2116520     23  2.500                                             
     3     -1.3605826     23  2.500                                             
  local pseudopotential read in
  partial core-charges read in
  partial kinetic energy density read in
  atomic valenz-charges read in
  non local Contribution for L=           2  read in
    real space projection operators read in
  non local Contribution for L=           2  read in
    real space projection operators read in
  non local Contribution for L=           0  read in
    real space projection operators read in
  non local Contribution for L=           0  read in
    real space projection operators read in
  non local Contribution for L=           1  read in
    real space projection operators read in
  non local Contribution for L=           1  read in
    real space projection operators read in
    PAW grid and wavefunctions read in
 
   number of l-projection  operators is LMAX  =           6
   number of lm-projection operators is LMMAX =          18
 
 POTCAR:    PAW_PBE C 08Apr2002                   
   VRHFIN =C: s2p2                                                              
   LEXCH  = PE                                                                  
   EATOM  =   147.1560 eV,   10.8157 Ry                                         
                                                                                
   TITEL  = PAW_PBE C 08Apr2002                                                 
   LULTRA =        F    use ultrasoft PP ?                                      
   IUNSCR =        1    unscreen: 0-lin 1-nonlin 2-no                           
   RPACOR =    1.200    partial core radius                                     
   POMASS =   12.011; ZVAL   =    4.000    mass and valenz                      
   RCORE  =    1.500    outmost cutoff radius                                   
   RWIGS  =    1.630; RWIGS  =    0.863    wigner-seitz radius (au A)           
   ENMAX  =  400.000; ENMIN  =  300.000 eV                                      
   ICORE  =        2    local potential                                         
   LCOR   =        T    correct aug charges                                     
   LPAW   =        T    paw PP                                                  
   EAUG   =  644.873                                                            
   DEXC   =    0.000                                                            
   RMAX   =    1.529    core radius for proj-oper                               
   RAUG   =    1.300    factor for augmentation sphere                          
   RDEP   =    1.501    radius for radial grids                                 
   RDEPT  =    1.300    core radius for aug-charge                              
                                                                                
   Atomic configuration                                                         
    4 entries                                                                   
     n  l   j            E        occ.                                          
     1  0  0.50      -273.3789   2.0000                                         
     2  0  0.50       -13.7508   2.0000                                         
     2  1  0.50        -5.2854   2.0000                                         
     3  2  1.50        -5.4423   0.0000                                         
   Description                                                                  
     l       E           TYP  RCUT    TYP  RCUT                                 
     0    -13.7508458     23  1.200                                             
     0     -8.2022199     23  1.200                                             
     1     -5.2854383     23  1.500                                             
     1     34.0145650     23  1.500                                             
     2     -5.4423304      7  1.500                                             
  local pseudopotential read in
  partial core-charges read in
  partial kinetic energy density read in
  atomic valenz-charges read in
  non local Contribution for L=           0  read in
    real space projection operators read in
  non local Contribution for L=           0  read in
    real space projection operators read in
  non local Contribution for L=           1  read in
    real space projection operators read in
  non local Contribution for L=           1  read in
    real space projection operators read in
    PAW grid and wavefunctions read in
 
   number of l-projection  operators is LMAX  =           4
   number of lm-projection operators is LMMAX =           8
 
 POTCAR:    PAW_PBE H 15Jun2001                   
   VRHFIN =H: ultrasoft test                                                    
   LEXCH  = PE                                                                  
   EATOM  =    12.4884 eV,    0.9179 Ry                                         
                                                                                
   TITEL  = PAW_PBE H 15Jun2001                                                 
   LULTRA =        F    use ultrasoft PP ?                                      
   IUNSCR =        0    unscreen: 0-lin 1-nonlin 2-no                           
   RPACOR =    0.000    partial core radius                                     
   POMASS =    1.000; ZVAL   =    1.000    mass and valenz                      
   RCORE  =    1.100    outmost cutoff radius                                   
   RWIGS  =    0.700; RWIGS  =    0.370    wigner-seitz radius (au A)           
   ENMAX  =  250.000; ENMIN  =  200.000 eV                                      
   RCLOC  =    0.701    cutoff for local pot                                    
   LCOR   =        T    correct aug charges                                     
   LPAW   =        T    paw PP                                                  
   EAUG   =  400.000                                                            
   RMAX   =    1.123    core radius for proj-oper                               
   RAUG   =    1.200    factor for augmentation sphere                          
   RDEP   =    1.112    radius for radial grids                                 
   RDEPT  =    0.926    core radius for aug-charge                              
                                                                                
   Atomic configuration                                                         
    2 entries                                                                   
     n  l   j            E        occ.                                          
     1  0  0.50        -6.4927   1.0000                                         
     2  1  0.50        -3.4015   0.0000                                         
   Description                                                                  
     l       E           TYP  RCUT    TYP  RCUT                                 
     0     -6.4927494     23  1.100                                             
     0      6.8029130     23  1.100                                             
     1     -4.0817478     23  1.100                                             
  local pseudopotential read in
  atomic valenz-charges read in
  non local Contribution for L=           0  read in
    real space projection operators read in
  non local Contribution for L=           0  read in
    real space projection operators read in
  non local Contribution for L=           1  read in
    real space projection operators read in
    PAW grid and wavefunctions read in
 
   number of l-projection  operators is LMAX  =           3
   number of lm-projection operators is LMMAX =           5
 
 POTCAR:    PAW_PBE Ir 06Sep2000                  
   VRHFIN =Ir: s1d8                                                             
   LEXCH  = PE                                                                  
   EATOM  =   560.1833 eV,   41.1723 Ry                                         
                                                                                
   TITEL  = PAW_PBE Ir 06Sep2000                                                
   LULTRA =        F    use ultrasoft PP ?                                      
   IUNSCR =        1    unscreen: 0-lin 1-nonlin 2-no                           
   RPACOR =    2.250    partial core radius                                     
   POMASS =  192.220; ZVAL   =    9.000    mass and valenz                      
   RCORE  =    2.600    outmost cutoff radius                                   
   RWIGS  =    2.690; RWIGS  =    1.423    wigner-seitz radius (au A)           
   ENMAX  =  210.864; ENMIN  =  158.148 eV                                      
   RCLOC  =    1.857    cutoff for local pot                                    
   LCOR   =        T    correct aug charges                                     
   LPAW   =        T    paw PP                                                  
   EAUG   =  318.962                                                            
   DEXC   =    0.000                                                            
   RMAX   =    2.667    core radius for proj-oper                               
   RAUG   =    1.300    factor for augmentation sphere                          
   RDEP   =    2.748    radius for radial grids                                 
   RDEPT  =    2.300    core radius for aug-charge                              
                                                                                
   Atomic configuration                                                         
   16 entries                                                                   
     n  l   j            E        occ.                                          
     1  0  0.50    -76100.0449   2.0000                                         
     2  0  0.50    -13308.1683   2.0000                                         
     2  1  1.50    -11558.0021   6.0000                                         
     3  0  0.50     -3110.7274   2.0000                                         
     3  1  1.50     -2599.2109   6.0000                                         
     3  2  2.50     -2037.1515  10.0000                                         
     4  0  0.50      -661.6001   2.0000                                         
     4  1  1.50      -493.8981   6.0000                                         
     4  2  2.50      -288.1909  10.0000                                         
     4  3  3.50       -59.5718  14.0000                                         
     5  0  0.50       -95.3879   2.0000                                         
     5  1  1.50       -52.2747   6.0000                                         
     5  2  2.50        -5.4180   8.0000                                         
     6  0  0.50        -5.5479   1.0000                                         
     6  1  1.50        -6.8029   0.0000                                         
     5  3  2.50        -1.3606   0.0000                                         
   Description                                                                  
     l       E           TYP  RCUT    TYP  RCUT                                 
     2     -5.4179967     23  2.600                                             
     2     -6.7785793     23  2.600                                             
     0     -5.5478636     23  2.600                                             
     0      2.2542272     23  2.600                                             
     1     -2.7211652     23  2.600                                             
     1     20.4087390     23  2.600                                             
  local pseudopotential read in
  partial core-charges read in
  partial kinetic energy density read in
  atomic valenz-charges read in
  non local Contribution for L=           2  read in
    real space projection operators read in
  non local Contribution for L=           2  read in
    real space projection operators read in
  non local Contribution for L=           0  read in
    real space projection operators read in
  non local Contribution for L=           0  read in
    real space projection operators read in
  non local Contribution for L=           1  read in
    real space projection operators read in
  non local Contribution for L=           1  read in
    real space projection operators read in
    PAW grid and wavefunctions read in
 
   number of l-projection  operators is LMAX  =           6
   number of lm-projection operators is LMMAX =          18
 
 POTCAR:    PAW_PBE Pt 04Feb2005                  
   VRHFIN =Pt: s1d9                                                             
   LEXCH  = PE                                                                  
   EATOM  =   729.1176 eV,   53.5886 Ry                                         
                                                                                
   TITEL  = PAW_PBE Pt 04Feb2005                                                
   LULTRA =        F    use ultrasoft PP ?                                      
   IUNSCR =        1    unscreen: 0-lin 1-nonlin 2-no                           
   RPACOR =    2.330    partial core radius                                     
   POMASS =  195.080; ZVAL   =   10.000    mass and valenz                      
   RCORE  =    2.600    outmost cutoff radius                                   
   RWIGS  =    2.750; RWIGS  =    1.455    wigner-seitz radius (au A)           
   ENMAX  =  230.283; ENMIN  =  172.712 eV                                      
   ICORE  =        3    local potential                                         
   LCOR   =        T    correct aug charges                                     
   LPAW   =        T    paw PP                                                  
   EAUG   =  358.966                                                            
   DEXC   =    0.000                                                            
   RMAX   =    2.658    core radius for proj-oper                               
   RAUG   =    1.300    factor for augmentation sphere                          
   RDEP   =    2.761    radius for radial grids                                 
   RDEPT  =    2.203    core radius for aug-charge                              
                                                                                
   Atomic configuration                                                         
   16 entries                                                                   
     n  l   j            E        occ.                                          
     1  0  0.50    -78401.1885   2.0000                                         
     2  0  0.50    -13770.7750   2.0000                                         
     2  1  1.50    -11931.0468   6.0000                                         
     3  0  0.50     -3234.7234   2.0000                                         
     3  1  1.50     -2699.2216   6.0000                                         
     3  2  2.50     -2119.5714  10.0000                                         
     4  0  0.50      -695.1528   2.0000                                         
     4  1  1.50      -519.6034   6.0000                                         
     4  2  2.50      -306.6786  10.0000                                         
     4  3  3.50       -70.1041  14.0000                                         
     5  0  0.50      -101.7747   2.0000                                         
     5  1  1.50       -55.9873   6.0000                                         
     5  2  2.50        -6.1423   9.0000                                         
     6  0  0.50        -5.6573   1.0000                                         
     6  1  1.50        -6.8029   0.0000                                         
     5  3  2.50        -1.3606   0.0000                                         
   Description                                                                  
     l       E           TYP  RCUT    TYP  RCUT                                 
     2     -6.1423404     23  2.500                                             
     2     -7.5029230     23  2.500                                             
     0     -5.6573207     23  2.500                                             
     0      0.7416693     23  2.500                                             
     1     -2.7211652     23  2.600                                             
     1     20.4087390     23  2.600                                             
     3     -1.3605826     23  2.500                                             
  local pseudopotential read in
  partial core-charges read in
  partial kinetic energy density read in
  atomic valenz-charges read in
  non local Contribution for L=           2  read in
    real space projection operators read in
  non local Contribution for L=           2  read in
    real space projection operators read in
  non local Contribution for L=           0  read in
    real space projection operators read in
  non local Contribution for L=           0  read in
    real space projection operators read in
  non local Contribution for L=           1  read in
    real space projection operators read in
  non local Contribution for L=           1  read in
    real space projection operators read in
    PAW grid and wavefunctions read in
 
   number of l-projection  operators is LMAX  =           6
   number of lm-projection operators is LMMAX =          18
 
 Optimization of the real space projectors (new method)

 maximal supplied QI-value         = 15.12
 optimisation between [QCUT,QGAM] = [  9.52, 19.05] = [ 25.40,101.61] Ry 
 Optimized for a Real-space Cutoff    1.57 Angstroem

   l    n(q)    QCUT    max X(q) W(low)/X(q) W(high)/X(q)  e(spline) 
   2      8     9.524    60.898    0.38E-03    0.43E-04    0.84E-07
   2      8     9.524    58.894    0.38E-03    0.47E-04    0.88E-07
   0      9     9.524   109.617    0.60E-04    0.64E-04    0.80E-07
   0      9     9.524    75.026    0.59E-04    0.62E-04    0.78E-07
   1      8     9.524    16.344    0.99E-04    0.18E-03    0.87E-07
   1      8     9.524    10.160    0.78E-04    0.15E-03    0.74E-07
 Optimization of the real space projectors (new method)

 maximal supplied QI-value         = 25.13
 optimisation between [QCUT,QGAM] = [  9.55, 19.10] = [ 25.54,102.17] Ry 
 Optimized for a Real-space Cutoff    1.39 Angstroem

   l    n(q)    QCUT    max X(q) W(low)/X(q) W(high)/X(q)  e(spline) 
   0      8     9.551   115.676    0.39E-03    0.54E-03    0.29E-06
   0      8     9.551    87.132    0.39E-03    0.54E-03    0.28E-06
   1      7     9.551     4.429    0.35E-03    0.51E-04    0.29E-06
   1      7     9.551     2.733    0.22E-03    0.42E-04    0.31E-06
 Optimization of the real space projectors (new method)

 maximal supplied QI-value         = 34.20
 optimisation between [QCUT,QGAM] = [  9.58, 19.15] = [ 25.68,102.74] Ry 
 Optimized for a Real-space Cutoff    1.31 Angstroem

   l    n(q)    QCUT    max X(q) W(low)/X(q) W(high)/X(q)  e(spline) 
   0      7     9.577    19.460    0.33E-03    0.12E-03    0.35E-06
   0      7     9.577    12.209    0.33E-03    0.11E-03    0.33E-06
   1      7     9.577     4.655    0.39E-03    0.14E-02    0.33E-06
 Optimization of the real space projectors (new method)

 maximal supplied QI-value         = 14.36
 optimisation between [QCUT,QGAM] = [  9.48, 19.10] = [ 25.16,102.17] Ry 
 Optimized for a Real-space Cutoff    1.57 Angstroem

   l    n(q)    QCUT    max X(q) W(low)/X(q) W(high)/X(q)  e(spline) 
   2      8     9.479   134.116    0.18E-03    0.75E-03    0.26E-06
   2      8     9.479   130.192    0.18E-03    0.75E-03    0.27E-06
   0      9     9.479    60.310    0.39E-03    0.24E-03    0.63E-07
   0      9     9.479    39.218    0.36E-03    0.22E-03    0.59E-07
   1      8     9.479    18.439    0.20E-03    0.15E-03    0.16E-06
   1      8     9.479    12.760    0.16E-03    0.11E-03    0.13E-06
 Optimization of the real space projectors (new method)

 maximal supplied QI-value         = 14.36
 optimisation between [QCUT,QGAM] = [  9.48, 19.10] = [ 25.16,102.17] Ry 
 Optimized for a Real-space Cutoff    1.57 Angstroem

   l    n(q)    QCUT    max X(q) W(low)/X(q) W(high)/X(q)  e(spline) 
   2      8     9.479    66.195    0.35E-03    0.53E-04    0.87E-07
   2      8     9.479    64.643    0.35E-03    0.57E-04    0.91E-07
   0      9     9.479    95.520    0.50E-04    0.62E-04    0.81E-07
   0      9     9.479    63.403    0.49E-04    0.60E-04    0.78E-07
   1      8     9.479    19.961    0.10E-03    0.87E-04    0.11E-06
   1      8     9.479    13.289    0.88E-04    0.71E-04    0.97E-07
  PAW_PBE Au 04Oct2007                  :
 energy of atom  1       EATOM= -926.0867
 kinetic energy error for atom=    0.0152 (will be added to EATOM!!)
  PAW_PBE C 08Apr2002                   :
 energy of atom  2       EATOM= -147.1560
 kinetic energy error for atom=    0.0854 (will be added to EATOM!!)
  PAW_PBE H 15Jun2001                   :
 energy of atom  3       EATOM=  -12.4884
 kinetic energy error for atom=    0.0203 (will be added to EATOM!!)
  PAW_PBE Ir 06Sep2000                  :
 energy of atom  4       EATOM= -560.1833
 kinetic energy error for atom=    0.0056 (will be added to EATOM!!)
  PAW_PBE Pt 04Feb2005                  :
 energy of atom  5       EATOM= -729.1176
 kinetic energy error for atom=    0.0144 (will be added to EATOM!!)
 
 
 POSCAR: Au  C  H Ir Pt                          
  positions in cartesian coordinates
  No initial velocities read in
 exchange correlation table for  LEXCH =        8
   RHO(1)=    0.500       N(1)  =     2000
   RHO(2)=  100.500       N(2)  =     4000
 


--------------------------------------------------------------------------------------------------------


 ion  position               nearest neighbor table
   1  0.504  0.497  0.618-   8 2.77  10 2.77   9 2.78   9 2.78  10 2.79   8 2.79  20 2.79  13 2.82
                            11 2.82
   2  0.004  0.038  0.705-   6 1.10   4 1.10   5 1.10   3 1.15  10 2.68
   3  0.014  0.153  0.674-   2 1.15  10 1.96
   4  0.879  0.215  0.726-   2 1.10
   5  0.902  0.914  0.701-   2 1.10
   6  0.219  0.908  0.716-   2 1.10
   7  0.502  0.003  0.393-  18 2.78  19 2.78  12 2.78  12 2.78  19 2.78  18 2.78  17 2.81  16 2.82
                            14 2.82
   8  0.006  0.496  0.618-  10 2.76   1 2.77   9 2.78   9 2.78   1 2.79  10 2.79  13 2.81  20 2.82
                            21 2.83
   9  0.506  0.996  0.618-  10 2.77   8 2.78   1 2.78   1 2.78   8 2.78  10 2.79  11 2.80  21 2.81
                            20 2.82
  10  0.004  0.994  0.618-   3 1.96   2 2.68   8 2.76   9 2.77   1 2.77   1 2.79  21 2.79   9 2.79
                             8 2.79  11 2.83  13 2.85
  11  0.339  0.834  0.543-  21 2.77  20 2.77  13 2.78  13 2.78  20 2.78  14 2.78  15 2.79  21 2.79
                            17 2.80   9 2.80   1 2.82  10 2.83
  12  0.002  0.003  0.393-   7 2.78  19 2.78  18 2.78  18 2.78  19 2.78   7 2.78  16 2.82  15 2.82
                            17 2.83
  13  0.839  0.334  0.543-  21 2.77  20 2.78  11 2.78  11 2.78  20 2.78  21 2.78  17 2.78  16 2.79
                            14 2.79   8 2.81   1 2.82  10 2.85
  14  0.671  0.670  0.469-  16 2.78  15 2.78  17 2.78  17 2.78  15 2.78  16 2.78  11 2.78  13 2.79
                            21 2.80  19 2.82   7 2.82  18 2.84
  15  0.171  0.669  0.469-  14 2.78  16 2.78  17 2.78  17 2.78  16 2.78  14 2.78  11 2.79  21 2.79
                            20 2.81  18 2.82  12 2.82  19 2.83
  16  0.671  0.170  0.468-  14 2.78  17 2.78  15 2.78  15 2.78  17 2.78  14 2.78  13 2.79  20 2.79
                            21 2.81  12 2.82   7 2.82  18 2.82
  17  0.171  0.169  0.469-  16 2.78  14 2.78  15 2.78  15 2.78  14 2.78  16 2.78  13 2.78  20 2.79
                            11 2.80   7 2.81  19 2.82  12 2.83
  18  0.502  0.503  0.393-   7 2.78  19 2.78  12 2.78  12 2.78  19 2.78   7 2.78  15 2.82  16 2.82
                            14 2.84
  19  0.002  0.503  0.393-   7 2.78  18 2.78  12 2.78  12 2.78  18 2.78   7 2.78  14 2.82  17 2.82
                            15 2.83
  20  0.340  0.333  0.543-  11 2.77  13 2.78  21 2.78  21 2.78  13 2.78  11 2.78   1 2.79  17 2.79
                            16 2.79  15 2.81   8 2.82   9 2.82
  21  0.841  0.834  0.543-  11 2.77  13 2.77  20 2.78  20 2.78  13 2.78  11 2.79  10 2.79  15 2.79
                            14 2.80  16 2.81   9 2.81   8 2.83
 
  LATTYP: Found a hexagonal cell.
 ALAT       =     5.5578593001
 C/A-ratio  =     5.5429542221
  
  Lattice vectors:
  
 A1 = (   2.7789296501,  -4.8132473446,   0.0000000000)
 A2 = (  -5.5578593001,   0.0000000000,   0.0000000000)
 A3 = (   0.0000000000,   0.0000000000, -30.8069596737)


Analysis of symmetry for initial positions (statically):
=====================================================================
 Subroutine PRICEL returns:
 Original cell was already a primitive cell.
 

 Routine SETGRP: Setting up the symmetry group for a 
 hexagonal supercell.


 Subroutine GETGRP returns: Found  1 space group operations
 (whereof  1 operations were pure point group operations)
 out of a pool of 24 trial point group operations.


The static configuration has the point symmetry C_1 .


Analysis of symmetry for dynamics (positions and initial velocities):
=====================================================================
 Subroutine PRICEL returns:
 Original cell was already a primitive cell.
 

 Routine SETGRP: Setting up the symmetry group for a 
 hexagonal supercell.


 Subroutine GETGRP returns: Found  1 space group operations
 (whereof  1 operations were pure point group operations)
 out of a pool of 24 trial point group operations.


The dynamic configuration has the point symmetry C_1 .


 Subroutine INISYM returns: Found  1 space group operations
 (whereof  1 operations are pure point group operations),
 and found     1 'primitive' translations

 
 
 KPOINTS: 0.2.Ir1.Au15                            

Automatic generation of k-mesh.
Space group operators:
 irot       det(A)        alpha          n_x          n_y          n_z        tau_x        tau_y        tau_z
    1     1.000000     0.000001     1.000000     0.000000     0.000000     0.000000     0.000000     0.000000
 
 Subroutine IBZKPT returns following result:
 ===========================================
 
 Found     96 irreducible k-points:
 
 Following reciprocal coordinates:
            Coordinates               Weight
  0.062500  0.062500  0.000000     16.000000
  0.000000  0.062500  0.000000     16.000000
 -0.062500  0.000000  0.000000     16.000000
  0.187500  0.062500  0.000000     16.000000
  0.125000  0.187500  0.000000     16.000000
 -0.062500  0.125000  0.000000     16.000000
  0.125000 -0.062500  0.000000     16.000000
 -0.062500 -0.187500  0.000000     16.000000
 -0.187500 -0.125000  0.000000     16.000000
  0.312500  0.062500  0.000000     16.000000
  0.250000  0.312500  0.000000     16.000000
 -0.062500  0.250000  0.000000     16.000000
  0.250000 -0.062500  0.000000     16.000000
 -0.062500 -0.312500  0.000000     16.000000
 -0.312500 -0.250000  0.000000     16.000000
  0.437500  0.062500  0.000000     16.000000
  0.375000  0.437500  0.000000     16.000000
 -0.062500  0.375000  0.000000     16.000000
  0.375000 -0.062500  0.000000     16.000000
 -0.062500 -0.437500  0.000000     16.000000
 -0.437500 -0.375000  0.000000     16.000000
 -0.437500  0.062500  0.000000     16.000000
  0.500000 -0.437500  0.000000     16.000000
 -0.062500  0.500000  0.000000     16.000000
  0.500000 -0.062500  0.000000     16.000000
 -0.062500  0.437500  0.000000     16.000000
  0.437500  0.500000  0.000000     16.000000
 -0.312500  0.062500  0.000000     16.000000
 -0.375000 -0.312500  0.000000     16.000000
 -0.062500 -0.375000  0.000000     16.000000
 -0.375000 -0.062500  0.000000     16.000000
 -0.062500  0.312500  0.000000     16.000000
  0.312500  0.375000  0.000000     16.000000
 -0.187500  0.062500  0.000000     16.000000
 -0.250000 -0.187500  0.000000     16.000000
 -0.062500 -0.250000  0.000000     16.000000
 -0.250000 -0.062500  0.000000     16.000000
 -0.062500  0.187500  0.000000     16.000000
  0.187500  0.250000  0.000000     16.000000
 -0.062500  0.062500  0.000000     16.000000
 -0.125000 -0.062500  0.000000     16.000000
 -0.062500 -0.125000  0.000000     16.000000
  0.187500  0.187500  0.000000     16.000000
  0.000000  0.187500  0.000000     16.000000
 -0.187500  0.000000  0.000000     16.000000
  0.312500  0.187500  0.000000     16.000000
  0.125000  0.312500  0.000000     16.000000
 -0.187500  0.125000  0.000000     16.000000
  0.125000 -0.187500  0.000000     16.000000
 -0.187500 -0.312500  0.000000     16.000000
 -0.312500 -0.125000  0.000000     16.000000
  0.437500  0.187500  0.000000     16.000000
  0.250000  0.437500  0.000000     16.000000
 -0.187500  0.250000  0.000000     16.000000
  0.250000 -0.187500  0.000000     16.000000
 -0.187500 -0.437500  0.000000     16.000000
 -0.437500 -0.250000  0.000000     16.000000
 -0.437500  0.187500  0.000000     16.000000
  0.375000 -0.437500  0.000000     16.000000
 -0.187500  0.375000  0.000000     16.000000
  0.375000 -0.187500  0.000000     16.000000
 -0.187500  0.437500  0.000000     16.000000
  0.437500 -0.375000  0.000000     16.000000
 -0.312500  0.187500  0.000000     16.000000
  0.500000 -0.312500  0.000000     16.000000
 -0.187500  0.500000  0.000000     16.000000
  0.500000 -0.187500  0.000000     16.000000
 -0.187500  0.312500  0.000000     16.000000
  0.312500  0.500000  0.000000     16.000000
 -0.187500  0.187500  0.000000     16.000000
 -0.375000 -0.187500  0.000000     16.000000
 -0.187500 -0.375000  0.000000     16.000000
  0.312500  0.312500  0.000000     16.000000
  0.000000  0.312500  0.000000     16.000000
 -0.312500  0.000000  0.000000     16.000000
  0.437500  0.312500  0.000000     16.000000
  0.125000  0.437500  0.000000     16.000000
 -0.312500  0.125000  0.000000     16.000000
  0.125000 -0.312500  0.000000     16.000000
 -0.312500 -0.437500  0.000000     16.000000
 -0.437500 -0.125000  0.000000     16.000000
 -0.437500  0.312500  0.000000     16.000000
  0.250000 -0.437500  0.000000     16.000000
 -0.312500  0.250000  0.000000     16.000000
  0.250000 -0.312500  0.000000     16.000000
 -0.312500  0.437500  0.000000     16.000000
  0.437500 -0.250000  0.000000     16.000000
 -0.312500  0.312500  0.000000     16.000000
  0.375000 -0.312500  0.000000     16.000000
 -0.312500  0.375000  0.000000     16.000000
  0.437500  0.437500  0.000000     16.000000
  0.000000  0.437500  0.000000     16.000000
 -0.437500 -0.000000  0.000000     16.000000
 -0.437500  0.437500  0.000000     16.000000
  0.125000 -0.437500  0.000000     16.000000
 -0.437500  0.125000  0.000000     16.000000
 
 Following cartesian coordinates:
            Coordinates               Weight
  0.011245  0.006492  0.000000     16.000000
  0.000000  0.012985  0.000000     16.000000
 -0.011245  0.006492  0.000000     16.000000
  0.033736 -0.006492  0.000000     16.000000
  0.022491  0.025970  0.000000     16.000000
 -0.011245  0.032462  0.000000     16.000000
  0.022491 -0.025970  0.000000     16.000000
 -0.011245 -0.032462  0.000000     16.000000
 -0.033736 -0.006492  0.000000     16.000000
  0.056227 -0.019477  0.000000     16.000000
  0.044981  0.038955  0.000000     16.000000
 -0.011245  0.058432  0.000000     16.000000
  0.044981 -0.038955  0.000000     16.000000
 -0.011245 -0.058432  0.000000     16.000000
 -0.056227 -0.019477  0.000000     16.000000
  0.078717 -0.032462  0.000000     16.000000
  0.067472  0.051940  0.000000     16.000000
 -0.011245  0.084402  0.000000     16.000000
  0.067472 -0.051940  0.000000     16.000000
 -0.011245 -0.084402  0.000000     16.000000
 -0.078717 -0.032462  0.000000     16.000000
 -0.078717  0.058432  0.000000     16.000000
  0.089963 -0.142835  0.000000     16.000000
 -0.011245  0.110372  0.000000     16.000000
  0.089963 -0.064925  0.000000     16.000000
 -0.011245  0.097387  0.000000     16.000000
  0.078717  0.058432  0.000000     16.000000
 -0.056227  0.045447  0.000000     16.000000
 -0.067472 -0.025970  0.000000     16.000000
 -0.011245 -0.071417  0.000000     16.000000
 -0.067472  0.025970  0.000000     16.000000
 -0.011245  0.071417  0.000000     16.000000
  0.056227  0.045447  0.000000     16.000000
 -0.033736  0.032462  0.000000     16.000000
 -0.044981 -0.012985  0.000000     16.000000
 -0.011245 -0.045447  0.000000     16.000000
 -0.044981  0.012985  0.000000     16.000000
 -0.011245  0.045447  0.000000     16.000000
  0.033736  0.032462  0.000000     16.000000
 -0.011245  0.019477  0.000000     16.000000
 -0.022491  0.000000  0.000000     16.000000
 -0.011245 -0.019477  0.000000     16.000000
  0.033736  0.019477  0.000000     16.000000
  0.000000  0.038955  0.000000     16.000000
 -0.033736  0.019477  0.000000     16.000000
  0.056227  0.006492  0.000000     16.000000
  0.022491  0.051940  0.000000     16.000000
 -0.033736  0.045447  0.000000     16.000000
  0.022491 -0.051940  0.000000     16.000000
 -0.033736 -0.045447  0.000000     16.000000
 -0.056227  0.006492  0.000000     16.000000
  0.078717 -0.006492  0.000000     16.000000
  0.044981  0.064925  0.000000     16.000000
 -0.033736  0.071417  0.000000     16.000000
  0.044981 -0.064925  0.000000     16.000000
 -0.033736 -0.071417  0.000000     16.000000
 -0.078717 -0.006492  0.000000     16.000000
 -0.078717  0.084402  0.000000     16.000000
  0.067472 -0.129850  0.000000     16.000000
 -0.033736  0.097387  0.000000     16.000000
  0.067472 -0.077910  0.000000     16.000000
 -0.033736  0.110372  0.000000     16.000000
  0.078717 -0.123357  0.000000     16.000000
 -0.056227  0.071417  0.000000     16.000000
  0.089963 -0.116865  0.000000     16.000000
 -0.033736  0.123357  0.000000     16.000000
  0.089963 -0.090895  0.000000     16.000000
 -0.033736  0.084402  0.000000     16.000000
  0.056227  0.071417  0.000000     16.000000
 -0.033736  0.058432  0.000000     16.000000
 -0.067472  0.000000  0.000000     16.000000
 -0.033736 -0.058432  0.000000     16.000000
  0.056227  0.032462  0.000000     16.000000
  0.000000  0.064925  0.000000     16.000000
 -0.056227  0.032462  0.000000     16.000000
  0.078717  0.019477  0.000000     16.000000
  0.022491  0.077910  0.000000     16.000000
 -0.056227  0.058432  0.000000     16.000000
  0.022491 -0.077910  0.000000     16.000000
 -0.056227 -0.058432  0.000000     16.000000
 -0.078717  0.019477  0.000000     16.000000
 -0.078717  0.110372  0.000000     16.000000
  0.044981 -0.116865  0.000000     16.000000
 -0.056227  0.084402  0.000000     16.000000
  0.044981 -0.090895  0.000000     16.000000
 -0.056227  0.123357  0.000000     16.000000
  0.078717 -0.097387  0.000000     16.000000
 -0.056227  0.097387  0.000000     16.000000
  0.067472 -0.103880  0.000000     16.000000
 -0.056227  0.110372  0.000000     16.000000
  0.078717  0.045447  0.000000     16.000000
  0.000000  0.090895  0.000000     16.000000
 -0.078717  0.045447  0.000000     16.000000
 -0.078717  0.136342  0.000000     16.000000
  0.022491 -0.103880  0.000000     16.000000
 -0.078717  0.071417  0.000000     16.000000
 


--------------------------------------------------------------------------------------------------------




 Dimension of arrays:
   k-points           NKPTS =     96   k-points in BZ     NKDIM =     96   number of bands    NBANDS=    100
   number of dos      NEDOS =    301   number of ions     NIONS =     21
   non local maximal  LDIM  =      6   non local SUM 2l+1 LMDIM =     18
   total plane-waves  NPLWV = 112896
   max r-space proj   IRMAX =   2252   max aug-charges    IRDMAX=  10104
   dimension x,y,z NGX =    28 NGY =   28 NGZ =  144
   dimension x,y,z NGXF=    56 NGYF=   56 NGZF=  288
   support grid    NGXF=    56 NGYF=   56 NGZF=  288
   ions per type =               1   1   4   1  14
   NGX,Y,Z   is equivalent  to a cutoff of   8.38,  8.38,  7.77 a.u.
   NGXF,Y,Z  is equivalent  to a cutoff of  16.75, 16.75, 15.54 a.u.

 SYSTEM =  0.2.Ir1.Au15                            
 POSCAR =  Au  C  H Ir Pt                          

 Startparameter for this run:
   NWRITE =      2    write-flag & timer
   PREC   = normal    normal or accurate (medium, high low for compatibility)
   ISTART =      0    job   : 0-new  1-cont  2-samecut
   ICHARG =      2    charge: 1-file 2-atom 10-const
   ISPIN  =      1    spin polarized calculation?
   LNONCOLLINEAR =      F non collinear calculations
   LSORBIT =      F    spin-orbit coupling
   INIWAV =      1    electr: 0-lowe 1-rand  2-diag
   LASPH  =      F    aspherical Exc in radial PAW
   METAGGA=      F    non-selfconsistent MetaGGA calc.

 Electronic Relaxation 1
   ENCUT  =  350.0 eV  25.72 Ry    5.07 a.u.   8.48  8.48 46.99*2*pi/ulx,y,z
   ENINI  =  350.0     initial cutoff
   ENAUG  =  644.9 eV  augmentation charge cutoff
   NELM   =   1000;   NELMIN=  5; NELMDL= -5     # of ELM steps 
   EDIFF  = 0.1E-04   stopping-criterion for ELM
   LREAL  =      T    real-space projection
   NLSPLINE    = F    spline interpolate recip. space projectors
   LCOMPAT=      F    compatible to vasp.4.4
   GGA_COMPAT  = T    GGA compatible to vasp.4.4-vasp.4.6
   LMAXPAW     = -100 max onsite density
   LMAXMIX     =    2 max onsite mixed and CHGCAR
   VOSKOWN=      0    Vosko Wilk Nusair interpolation
   ROPT   =   -0.00050  -0.00050  -0.00050  -0.00050
   ROPT   =   -0.00050
 Ionic relaxation
   EDIFFG = 0.1E-03   stopping-criterion for IOM
   NSW    =      0    number of steps for IOM
   NBLOCK =      1;   KBLOCK =      1    inner block; outer block 
   IBRION =     -1    ionic relax: 0-MD 1-quasi-New 2-CG
   NFREE  =      0    steps in history (QN), initial steepest desc. (CG)
   ISIF   =      2    stress and relaxation
   IWAVPR =     10    prediction:  0-non 1-charg 2-wave 3-comb
   ISYM   =      2    0-nonsym 1-usesym 2-fastsym
   LCORR  =      T    Harris-Foulkes like correction to forces

   POTIM  = 0.5000    time-step for ionic-motion
   TEIN   =    0.0    initial temperature
   TEBEG  =    0.0;   TEEND  =   0.0 temperature during run
   SMASS  =  -3.00    Nose mass-parameter (am)
   estimated Nose-frequenzy (Omega)   =  0.10E-29 period in steps =****** mass=  -0.706E-27a.u.
   SCALEE = 1.0000    scale energy and forces
   NPACO  =    256;   APACO  = 16.0  distance and # of slots for P.C.
   PSTRESS=    0.0 pullay stress

  Mass of Ions in am
   POMASS = 196.97 12.01  1.00192.22195.08
  Ionic Valenz
   ZVAL   =  11.00  4.00  1.00  9.00 10.00
  Atomic Wigner-Seitz radii
   RWIGS  =  -1.00 -1.00 -1.00 -1.00 -1.00
  virtual crystal weights 
   VCA    =   1.00  1.00  1.00  1.00  1.00
   NELECT =     168.0000    total number of electrons
   NUPDOWN=      -1.0000    fix difference up-down

 DOS related values:
   EMIN   =  10.00;   EMAX   =-10.00  energy-range for DOS
   EFERMI =   0.00
   ISMEAR =     1;   SIGMA  =   0.20  broadening in eV -4-tet -1-fermi 0-gaus

 Electronic relaxation 2 (details)
   IALGO  =     38    algorithm
   LDIAG  =      T    sub-space diagonalisation (order eigenvalues)
   LSUBROT=      F    optimize rotation matrix (better conditioning)
   TURBO    =      0    0=normal 1=particle mesh
   IRESTART =      0    0=no restart 2=restart with 2 vectors
   NREBOOT  =      0    no. of reboots
   NMIN     =      0    reboot dimension
   EREF     =   0.00    reference energy to select bands
   IMIX   =      4    mixing-type and parameters
     AMIX     =   0.40;   BMIX     =  1.00
     AMIX_MAG =   1.60;   BMIX_MAG =  1.00
     AMIN     =   0.10
     WC   =   100.;   INIMIX=   1;  MIXPRE=   1;  MAXMIX= -45

 Intra band minimization:
   WEIMIN = 0.0000     energy-eigenvalue tresh-hold
   EBREAK =  0.25E-07  absolut break condition
   DEPER  =   0.30     relativ break condition  

   TIME   =   0.40     timestep for ELM

  volume/ion in A,a.u.               =      39.24       264.83
  Fermi-wavevector in a.u.,A,eV,Ry     =   0.963488  1.820729 12.630418  0.928310
  Thomas-Fermi vector in A             =   2.093038
 
 Write flags
   LWAVE        =      F    write WAVECAR
   LDOWNSAMPLE  =      F    k-point downsampling of WAVECAR
   LCHARG       =      F    write CHGCAR
   LVTOT        =      F    write LOCPOT, total local potential
   LVHAR        =      F    write LOCPOT, Hartree potential only
   LELF         =      F    write electronic localiz. function (ELF)
   LORBIT       =      0    0 simple, 1 ext, 2 COOP (PROOUT), +10 PAW based schemes


 Dipole corrections
   LMONO  =      F    monopole corrections only (constant potential shift)
   LDIPOL =      F    correct potential (dipole corrections)
   IDIPOL =      3    1-x, 2-y, 3-z, 4-all directions 
   EPSILON=  1.0000000 bulk dielectric constant

 Exchange correlation treatment:
   GGA     =    --    GGA type
   LEXCH   =     8    internal setting for exchange type
   VOSKOWN=      0    Vosko Wilk Nusair interpolation
   LHFCALC =     F    Hartree Fock is set to
   LHFONE  =     F    Hartree Fock one center treatment
   AEXX    =    0.0000 exact exchange contribution

 Linear response parameters
   LEPSILON=     F    determine dielectric tensor
   LRPA    =     F    only Hartree local field effects (RPA)
   LNABLA  =     F    use nabla operator in PAW spheres
   LVEL    =     F    velocity operator in full k-point grid
   LINTERFAST=   F  fast interpolation
   KINTER  =     0    interpolate to denser k-point grid
   CSHIFT  =0.1000    complex shift for real part using Kramers Kronig
   OMEGAMAX=  -1.0    maximum frequency
   DEG_THRESHOLD= 0.2000000E-02 threshold for treating states as degnerate
   RTIME   =   -0.100 relaxation time in fs
  (WPLASMAI=    0.000 imaginary part of plasma frequency in eV, 0.658/RTIME)
   DFIELD  = 0.0000000 0.0000000 0.0000000 field for delta impulse in time
 
 Orbital magnetization related:
   ORBITALMAG=     F  switch on orbital magnetization
   LCHIMAG   =     F  perturbation theory with respect to B field
   DQ        =  0.001000  dq finite difference perturbation B field
   LLRAUG    =     F  two centre corrections for induced B field



--------------------------------------------------------------------------------------------------------


 Static calculation
 charge density and potential will be updated during run
 non-spin polarized calculation
 Variant of blocked Davidson
 Davidson routine will perform the subspace rotation
 perform sub-space diagonalisation
    after iterative eigenvector-optimisation
 modified Broyden-mixing scheme, WC =      100.0
 initial mixing is a Kerker type mixing with AMIX =  0.4000 and BMIX =      1.0000
 Hartree-type preconditioning will be used
 using additional bands           16
 real space projection scheme for non local part
 use partial core corrections
 calculate Harris-corrections to forces 
   (improved forces if not selfconsistent)
 use gradient corrections 
 use of overlap-Matrix (Vanderbilt PP)
 Methfessel and Paxton  Order N= 1 SIGMA  =   0.20


--------------------------------------------------------------------------------------------------------


  energy-cutoff  :      350.00
  volume of cell :      824.13
      direct lattice vectors                 reciprocal lattice vectors
     5.557859300  0.000000000  0.000000000     0.179925390 -0.103879972  0.000000000
     2.778929650  4.813247345  0.000000000     0.000000000  0.207759944  0.000000000
     0.000000000  0.000000000 30.806959674     0.000000000  0.000000000  0.032460198

  length of vectors
     5.557859300  5.557859300 30.806959674     0.207759944  0.207759944  0.032460198


 
 k-points in units of 2pi/SCALE and weight: 0.2.Ir1.Au15                            
   0.01124534  0.00649250  0.00000000       0.010
   0.00000000  0.01298500  0.00000000       0.010
  -0.01124534  0.00649250  0.00000000       0.010
   0.03373601 -0.00649250  0.00000000       0.010
   0.02249067  0.02596999  0.00000000       0.010
  -0.01124534  0.03246249  0.00000000       0.010
   0.02249067 -0.02596999  0.00000000       0.010
  -0.01124534 -0.03246249  0.00000000       0.010
  -0.03373601 -0.00649250  0.00000000       0.010
   0.05622668 -0.01947749  0.00000000       0.010
   0.04498135  0.03895499  0.00000000       0.010
  -0.01124534  0.05843248  0.00000000       0.010
   0.04498135 -0.03895499  0.00000000       0.010
  -0.01124534 -0.05843248  0.00000000       0.010
  -0.05622668 -0.01947749  0.00000000       0.010
   0.07871736 -0.03246249  0.00000000       0.010
   0.06747202  0.05193999  0.00000000       0.010
  -0.01124534  0.08440248  0.00000000       0.010
   0.06747202 -0.05193999  0.00000000       0.010
  -0.01124534 -0.08440248  0.00000000       0.010
  -0.07871736 -0.03246249  0.00000000       0.010
  -0.07871736  0.05843248  0.00000000       0.010
   0.08996269 -0.14283496  0.00000000       0.010
  -0.01124534  0.11037247  0.00000000       0.010
   0.08996269 -0.06492498  0.00000000       0.010
  -0.01124534  0.09738747  0.00000000       0.010
   0.07871736  0.05843248  0.00000000       0.010
  -0.05622668  0.04544749  0.00000000       0.010
  -0.06747202 -0.02596999  0.00000000       0.010
  -0.01124534 -0.07141748  0.00000000       0.010
  -0.06747202  0.02596999  0.00000000       0.010
  -0.01124534  0.07141748  0.00000000       0.010
   0.05622668  0.04544749  0.00000000       0.010
  -0.03373601  0.03246249  0.00000000       0.010
  -0.04498135 -0.01298500  0.00000000       0.010
  -0.01124534 -0.04544749  0.00000000       0.010
  -0.04498135  0.01298500  0.00000000       0.010
  -0.01124534  0.04544749  0.00000000       0.010
   0.03373601  0.03246249  0.00000000       0.010
  -0.01124534  0.01947749  0.00000000       0.010
  -0.02249067  0.00000000  0.00000000       0.010
  -0.01124534 -0.01947749  0.00000000       0.010
   0.03373601  0.01947749  0.00000000       0.010
   0.00000000  0.03895499  0.00000000       0.010
  -0.03373601  0.01947749  0.00000000       0.010
   0.05622668  0.00649250  0.00000000       0.010
   0.02249067  0.05193999  0.00000000       0.010
  -0.03373601  0.04544749  0.00000000       0.010
   0.02249067 -0.05193999  0.00000000       0.010
  -0.03373601 -0.04544749  0.00000000       0.010
  -0.05622668  0.00649250  0.00000000       0.010
   0.07871736 -0.00649250  0.00000000       0.010
   0.04498135  0.06492498  0.00000000       0.010
  -0.03373601  0.07141748  0.00000000       0.010
   0.04498135 -0.06492498  0.00000000       0.010
  -0.03373601 -0.07141748  0.00000000       0.010
  -0.07871736 -0.00649250  0.00000000       0.010
  -0.07871736  0.08440248  0.00000000       0.010
   0.06747202 -0.12984997  0.00000000       0.010
  -0.03373601  0.09738747  0.00000000       0.010
   0.06747202 -0.07790998  0.00000000       0.010
  -0.03373601  0.11037247  0.00000000       0.010
   0.07871736 -0.12335747  0.00000000       0.010
  -0.05622668  0.07141748  0.00000000       0.010
   0.08996269 -0.11686497  0.00000000       0.010
  -0.03373601  0.12335747  0.00000000       0.010
   0.08996269 -0.09089498  0.00000000       0.010
  -0.03373601  0.08440248  0.00000000       0.010
   0.05622668  0.07141748  0.00000000       0.010
  -0.03373601  0.05843248  0.00000000       0.010
  -0.06747202  0.00000000  0.00000000       0.010
  -0.03373601 -0.05843248  0.00000000       0.010
   0.05622668  0.03246249  0.00000000       0.010
   0.00000000  0.06492498  0.00000000       0.010
  -0.05622668  0.03246249  0.00000000       0.010
   0.07871736  0.01947749  0.00000000       0.010
   0.02249067  0.07790998  0.00000000       0.010
  -0.05622668  0.05843248  0.00000000       0.010
   0.02249067 -0.07790998  0.00000000       0.010
  -0.05622668 -0.05843248  0.00000000       0.010
  -0.07871736  0.01947749  0.00000000       0.010
  -0.07871736  0.11037247  0.00000000       0.010
   0.04498135 -0.11686497  0.00000000       0.010
  -0.05622668  0.08440248  0.00000000       0.010
   0.04498135 -0.09089498  0.00000000       0.010
  -0.05622668  0.12335747  0.00000000       0.010
   0.07871736 -0.09738747  0.00000000       0.010
  -0.05622668  0.09738747  0.00000000       0.010
   0.06747202 -0.10387997  0.00000000       0.010
  -0.05622668  0.11037247  0.00000000       0.010
   0.07871736  0.04544749  0.00000000       0.010
   0.00000000  0.09089498  0.00000000       0.010
  -0.07871736  0.04544749  0.00000000       0.010
  -0.07871736  0.13634246  0.00000000       0.010
   0.02249067 -0.10387997  0.00000000       0.010
  -0.07871736  0.07141748  0.00000000       0.010
 
 k-points in reciprocal lattice and weights: 0.2.Ir1.Au15                            
   0.06250000  0.06250000  0.00000000       0.010
   0.00000000  0.06250000  0.00000000       0.010
  -0.06250000  0.00000000  0.00000000       0.010
   0.18750000  0.06250000  0.00000000       0.010
   0.12500000  0.18750000  0.00000000       0.010
  -0.06250000  0.12500000  0.00000000       0.010
   0.12500000 -0.06250000  0.00000000       0.010
  -0.06250000 -0.18750000  0.00000000       0.010
  -0.18750000 -0.12500000  0.00000000       0.010
   0.31250000  0.06250000  0.00000000       0.010
   0.25000000  0.31250000  0.00000000       0.010
  -0.06250000  0.25000000  0.00000000       0.010
   0.25000000 -0.06250000  0.00000000       0.010
  -0.06250000 -0.31250000  0.00000000       0.010
  -0.31250000 -0.25000000  0.00000000       0.010
   0.43750000  0.06250000  0.00000000       0.010
   0.37500000  0.43750000  0.00000000       0.010
  -0.06250000  0.37500000  0.00000000       0.010
   0.37500000 -0.06250000  0.00000000       0.010
  -0.06250000 -0.43750000  0.00000000       0.010
  -0.43750000 -0.37500000  0.00000000       0.010
  -0.43750000  0.06250000  0.00000000       0.010
   0.50000000 -0.43750000  0.00000000       0.010
  -0.06250000  0.50000000  0.00000000       0.010
   0.50000000 -0.06250000  0.00000000       0.010
  -0.06250000  0.43750000  0.00000000       0.010
   0.43750000  0.50000000  0.00000000       0.010
  -0.31250000  0.06250000  0.00000000       0.010
  -0.37500000 -0.31250000  0.00000000       0.010
  -0.06250000 -0.37500000  0.00000000       0.010
  -0.37500000 -0.06250000  0.00000000       0.010
  -0.06250000  0.31250000  0.00000000       0.010
   0.31250000  0.37500000  0.00000000       0.010
  -0.18750000  0.06250000  0.00000000       0.010
  -0.25000000 -0.18750000  0.00000000       0.010
  -0.06250000 -0.25000000  0.00000000       0.010
  -0.25000000 -0.06250000  0.00000000       0.010
  -0.06250000  0.18750000  0.00000000       0.010
   0.18750000  0.25000000  0.00000000       0.010
  -0.06250000  0.06250000  0.00000000       0.010
  -0.12500000 -0.06250000  0.00000000       0.010
  -0.06250000 -0.12500000  0.00000000       0.010
   0.18750000  0.18750000  0.00000000       0.010
   0.00000000  0.18750000  0.00000000       0.010
  -0.18750000  0.00000000  0.00000000       0.010
   0.31250000  0.18750000  0.00000000       0.010
   0.12500000  0.31250000  0.00000000       0.010
  -0.18750000  0.12500000  0.00000000       0.010
   0.12500000 -0.18750000  0.00000000       0.010
  -0.18750000 -0.31250000  0.00000000       0.010
  -0.31250000 -0.12500000  0.00000000       0.010
   0.43750000  0.18750000  0.00000000       0.010
   0.25000000  0.43750000  0.00000000       0.010
  -0.18750000  0.25000000  0.00000000       0.010
   0.25000000 -0.18750000  0.00000000       0.010
  -0.18750000 -0.43750000  0.00000000       0.010
  -0.43750000 -0.25000000  0.00000000       0.010
  -0.43750000  0.18750000  0.00000000       0.010
   0.37500000 -0.43750000  0.00000000       0.010
  -0.18750000  0.37500000  0.00000000       0.010
   0.37500000 -0.18750000  0.00000000       0.010
  -0.18750000  0.43750000  0.00000000       0.010
   0.43750000 -0.37500000  0.00000000       0.010
  -0.31250000  0.18750000  0.00000000       0.010
   0.50000000 -0.31250000  0.00000000       0.010
  -0.18750000  0.50000000  0.00000000       0.010
   0.50000000 -0.18750000  0.00000000       0.010
  -0.18750000  0.31250000  0.00000000       0.010
   0.31250000  0.50000000  0.00000000       0.010
  -0.18750000  0.18750000  0.00000000       0.010
  -0.37500000 -0.18750000  0.00000000       0.010
  -0.18750000 -0.37500000  0.00000000       0.010
   0.31250000  0.31250000  0.00000000       0.010
   0.00000000  0.31250000  0.00000000       0.010
  -0.31250000  0.00000000  0.00000000       0.010
   0.43750000  0.31250000  0.00000000       0.010
   0.12500000  0.43750000  0.00000000       0.010
  -0.31250000  0.12500000  0.00000000       0.010
   0.12500000 -0.31250000  0.00000000       0.010
  -0.31250000 -0.43750000  0.00000000       0.010
  -0.43750000 -0.12500000  0.00000000       0.010
  -0.43750000  0.31250000  0.00000000       0.010
   0.25000000 -0.43750000  0.00000000       0.010
  -0.31250000  0.25000000  0.00000000       0.010
   0.25000000 -0.31250000  0.00000000       0.010
  -0.31250000  0.43750000  0.00000000       0.010
   0.43750000 -0.25000000  0.00000000       0.010
  -0.31250000  0.31250000  0.00000000       0.010
   0.37500000 -0.31250000  0.00000000       0.010
  -0.31250000  0.37500000  0.00000000       0.010
   0.43750000  0.43750000  0.00000000       0.010
   0.00000000  0.43750000  0.00000000       0.010
  -0.43750000 -0.00000000  0.00000000       0.010
  -0.43750000  0.43750000  0.00000000       0.010
   0.12500000 -0.43750000  0.00000000       0.010
  -0.43750000  0.12500000  0.00000000       0.010
 
 position of ions in fractional coordinates (direct lattice) 
   0.50439204  0.49657980  0.61752625
   0.00435359  0.03761516  0.70475958
   0.01358312  0.15264794  0.67449012
   0.87885607  0.21517109  0.72606714
   0.90154056  0.91397787  0.70054276
   0.21876148  0.90758821  0.71591007
   0.50228507  0.00297804  0.39324954
   0.00636926  0.49624208  0.61804719
   0.50612719  0.99566957  0.61780603
   0.00442941  0.99441915  0.61818172
   0.33893697  0.83393027  0.54270515
   0.00231916  0.00325708  0.39312595
   0.83940859  0.33392762  0.54259022
   0.67133409  0.66979427  0.46871567
   0.17130286  0.66932446  0.46852214
   0.67119537  0.16955342  0.46844753
   0.17106828  0.16939492  0.46852282
   0.50224521  0.50335666  0.39304558
   0.00208030  0.50324642  0.39320135
   0.33951203  0.33276924  0.54286896
   0.84080393  0.83411951  0.54304265
 
 position of ions in cartesian coordinates  (Angst):
   4.18330036  2.39016143 19.02410641
   0.12872652  0.18105107 21.71150001
   0.49969093  0.73473229 20.77898987
   5.48250368  1.03567166 22.36792107
   7.55051578  4.39920155 21.58159247
   3.73796932  4.36844652 22.05501253
   2.79990550  0.01433403 12.11482266
   1.41442128  2.38853588 19.04015501
   5.57987940  4.79240389 19.03272553
   2.78803892  4.78638533 19.04429922
   4.20119757  4.01391267 16.71909572
   0.02194075  0.01567712 12.11101524
   5.59327619  1.60727624 16.71555509
   5.59249160  3.22388551 14.43970460
   2.81208280  3.22162419 14.43374277
   4.20158647  0.81610256 14.43144409
   1.42151002  0.81533965 14.43376372
   4.19020096  2.42278009 12.10853922
   1.41004843  2.42224950 12.11333801
   2.81170243  1.60170067 16.72414227
   6.99102940  4.01482353 16.72949293
 


--------------------------------------------------------------------------------------------------------


 k-point  1 :   0.0625 0.0625 0.0000  plane waves:   12325
 k-point  2 :   0.0000 0.0625 0.0000  plane waves:   12325
 k-point  3 :  -0.0625 0.0000 0.0000  plane waves:   12325
 k-point  4 :   0.1875 0.0625 0.0000  plane waves:   12294
 k-point  5 :   0.1250 0.1875 0.0000  plane waves:   12294
 k-point  6 :  -0.0625 0.1250 0.0000  plane waves:   12294
 k-point  7 :   0.1250-0.0625 0.0000  plane waves:   12294
 k-point  8 :  -0.0625-0.1875 0.0000  plane waves:   12294
 k-point  9 :  -0.1875-0.1250 0.0000  plane waves:   12294
 k-point 10 :   0.3125 0.0625 0.0000  plane waves:   12263
 k-point 11 :   0.2500 0.3125 0.0000  plane waves:   12263
 k-point 12 :  -0.0625 0.2500 0.0000  plane waves:   12263
 k-point 13 :   0.2500-0.0625 0.0000  plane waves:   12263
 k-point 14 :  -0.0625-0.3125 0.0000  plane waves:   12263
 k-point 15 :  -0.3125-0.2500 0.0000  plane waves:   12263
 k-point 16 :   0.4375 0.0625 0.0000  plane waves:   12221
 k-point 17 :   0.3750 0.4375 0.0000  plane waves:   12221
 k-point 18 :  -0.0625 0.3750 0.0000  plane waves:   12221
 k-point 19 :   0.3750-0.0625 0.0000  plane waves:   12221
 k-point 20 :  -0.0625-0.4375 0.0000  plane waves:   12221
 k-point 21 :  -0.4375-0.3750 0.0000  plane waves:   12221
 k-point 22 :  -0.4375 0.0625 0.0000  plane waves:   12211
 k-point 23 :   0.5000-0.4375 0.0000  plane waves:   12211
 k-point 24 :  -0.0625 0.5000 0.0000  plane waves:   12211
 k-point 25 :   0.5000-0.0625 0.0000  plane waves:   12211
 k-point 26 :  -0.0625 0.4375 0.0000  plane waves:   12211
 k-point 27 :   0.4375 0.5000 0.0000  plane waves:   12211
 k-point 28 :  -0.3125 0.0625 0.0000  plane waves:   12242
 k-point 29 :  -0.3750-0.3125 0.0000  plane waves:   12242
 k-point 30 :  -0.0625-0.3750 0.0000  plane waves:   12242
 k-point 31 :  -0.3750-0.0625 0.0000  plane waves:   12242
 k-point 32 :  -0.0625 0.3125 0.0000  plane waves:   12242
 k-point 33 :   0.3125 0.3750 0.0000  plane waves:   12242
 k-point 34 :  -0.1875 0.0625 0.0000  plane waves:   12280
 k-point 35 :  -0.2500-0.1875 0.0000  plane waves:   12280
 k-point 36 :  -0.0625-0.2500 0.0000  plane waves:   12280
 k-point 37 :  -0.2500-0.0625 0.0000  plane waves:   12280
 k-point 38 :  -0.0625 0.1875 0.0000  plane waves:   12280
 k-point 39 :   0.1875 0.2500 0.0000  plane waves:   12280
 k-point 40 :  -0.0625 0.0625 0.0000  plane waves:   12329
 k-point 41 :  -0.1250-0.0625 0.0000  plane waves:   12329
 k-point 42 :  -0.0625-0.1250 0.0000  plane waves:   12329
 k-point 43 :   0.1875 0.1875 0.0000  plane waves:   12277
 k-point 44 :   0.0000 0.1875 0.0000  plane waves:   12277
 k-point 45 :  -0.1875 0.0000 0.0000  plane waves:   12277
 k-point 46 :   0.3125 0.1875 0.0000  plane waves:   12288
 k-point 47 :   0.1250 0.3125 0.0000  plane waves:   12288
 k-point 48 :  -0.1875 0.1250 0.0000  plane waves:   12288
 k-point 49 :   0.1250-0.1875 0.0000  plane waves:   12288
 k-point 50 :  -0.1875-0.3125 0.0000  plane waves:   12288
 k-point 51 :  -0.3125-0.1250 0.0000  plane waves:   12288
 k-point 52 :   0.4375 0.1875 0.0000  plane waves:   12234
 k-point 53 :   0.2500 0.4375 0.0000  plane waves:   12234
 k-point 54 :  -0.1875 0.2500 0.0000  plane waves:   12234
 k-point 55 :   0.2500-0.1875 0.0000  plane waves:   12234
 k-point 56 :  -0.1875-0.4375 0.0000  plane waves:   12234
 k-point 57 :  -0.4375-0.2500 0.0000  plane waves:   12234
 k-point 58 :  -0.4375 0.1875 0.0000  plane waves:   12216
 k-point 59 :   0.3750-0.4375 0.0000  plane waves:   12216
 k-point 60 :  -0.1875 0.3750 0.0000  plane waves:   12216
 k-point 61 :   0.3750-0.1875 0.0000  plane waves:   12216
 k-point 62 :  -0.1875 0.4375 0.0000  plane waves:   12216
 k-point 63 :   0.4375-0.3750 0.0000  plane waves:   12216
 k-point 64 :  -0.3125 0.1875 0.0000  plane waves:   12215
 k-point 65 :   0.5000-0.3125 0.0000  plane waves:   12215
 k-point 66 :  -0.1875 0.5000 0.0000  plane waves:   12215
 k-point 67 :   0.5000-0.1875 0.0000  plane waves:   12215
 k-point 68 :  -0.1875 0.3125 0.0000  plane waves:   12215
 k-point 69 :   0.3125 0.5000 0.0000  plane waves:   12215
 k-point 70 :  -0.1875 0.1875 0.0000  plane waves:   12289
 k-point 71 :  -0.3750-0.1875 0.0000  plane waves:   12289
 k-point 72 :  -0.1875-0.3750 0.0000  plane waves:   12289
 k-point 73 :   0.3125 0.3125 0.0000  plane waves:   12275
 k-point 74 :   0.0000 0.3125 0.0000  plane waves:   12275
 k-point 75 :  -0.3125 0.0000 0.0000  plane waves:   12275
 k-point 76 :   0.4375 0.3125 0.0000  plane waves:   12239
 k-point 77 :   0.1250 0.4375 0.0000  plane waves:   12239
 k-point 78 :  -0.3125 0.1250 0.0000  plane waves:   12239
 k-point 79 :   0.1250-0.3125 0.0000  plane waves:   12239
 k-point 80 :  -0.3125-0.4375 0.0000  plane waves:   12239
 k-point 81 :  -0.4375-0.1250 0.0000  plane waves:   12239
 k-point 82 :  -0.4375 0.3125 0.0000  plane waves:   12235
 k-point 83 :   0.2500-0.4375 0.0000  plane waves:   12235
 k-point 84 :  -0.3125 0.2500 0.0000  plane waves:   12235
 k-point 85 :   0.2500-0.3125 0.0000  plane waves:   12235
 k-point 86 :  -0.3125 0.4375 0.0000  plane waves:   12235
 k-point 87 :   0.4375-0.2500 0.0000  plane waves:   12235
 k-point 88 :  -0.3125 0.3125 0.0000  plane waves:   12232
 k-point 89 :   0.3750-0.3125 0.0000  plane waves:   12232
 k-point 90 :  -0.3125 0.3750 0.0000  plane waves:   12232
 k-point 91 :   0.4375 0.4375 0.0000  plane waves:   12200
 k-point 92 :   0.0000 0.4375 0.0000  plane waves:   12200
 k-point 93 :  -0.4375-0.0000 0.0000  plane waves:   12200
 k-point 94 :  -0.4375 0.4375 0.0000  plane waves:   12214
 k-point 95 :   0.1250-0.4375 0.0000  plane waves:   12214
 k-point 96 :  -0.4375 0.1250 0.0000  plane waves:   12214

 maximum and minimum number of plane-waves per node :      3101     2992

 maximum number of plane-waves:     12329
 maximum index in each direction: 
   IXMAX=    8   IYMAX=    8   IZMAX=   46
   IXMIN=   -8   IYMIN=   -8   IZMIN=  -46


 real space projection operators:
  total allocation   :       5095.41 KBytes
  max/ min on nodes  :       1278.22       1270.16


 parallel 3D FFT for wavefunctions:
    minimum data exchange during FFTs selected (reduces bandwidth)
 parallel 3D FFT for charge:
    minimum data exchange during FFTs selected (reduces bandwidth)


 total amount of memory used by VASP MPI-rank0   164312. kBytes
=======================================================================

   base      :      30000. kBytes
   nonlr-proj:       2359. kBytes
   fftplans  :       2967. kBytes
   grid      :       6321. kBytes
   one-center:         93. kBytes
   wavefun   :     122572. kBytes
 
     INWAV:  cpu time    0.0000: real time    0.0000
 Broyden mixing: mesh for mixing (old mesh)
   NGX = 17   NGY = 17   NGZ = 93
  (NGX  = 56   NGY  = 56   NGZ  =288)
  gives a total of  26877 points

 initial charge density was supplied:
 charge density of overlapping atoms calculated
 number of electron     168.0000000 magnetization 
 keeping initial charge density in first step


--------------------------------------------------------------------------------------------------------


 Maximum index for non-local projection operator          543
 Maximum index for augmentation-charges          717 (set IRDMAX)


--------------------------------------------------------------------------------------------------------


 First call to EWALD:  gamma=   0.189
 Maximum number of real-space cells 5x 5x 1
 Maximum number of reciprocal cells 2x 2x 8

    FEWALD:  cpu time    0.0013: real time    0.0013


--------------------------------------- Iteration      1(   1)  ---------------------------------------


    POTLOK:  cpu time    0.0261: real time    0.0317
    SETDIJ:  cpu time    0.0035: real time    0.0035
     EDDAV:  cpu time   14.4617: real time   14.4729
       DOS:  cpu time    0.0076: real time    0.0076
    --------------------------------------------
      LOOP:  cpu time   14.4988: real time   14.5156

 eigenvalue-minimisations  : 19288
 total energy-change (2. order) : 0.1029628E+04  (-0.5832293E+04)
 number of electron     168.0000000 magnetization 
 augmentation part      168.0000000 magnetization 

 Free energy of the ion-electron system (eV)
  ---------------------------------------------------
  alpha Z        PSCENC =       324.87461712
  Ewald energy   TEWEN  =    101195.63219676
  -Hartree energ DENC   =   -113480.13874034
  -exchange      EXHF   =         0.00000000
  -V(xc)+E(xc)   XCENC  =        69.41141731
  PAW double counting   =     11288.27476651   -10829.50941267
  entropy T*S    EENTRO =        -0.00345019
  eigenvalues    EBANDS =       570.44893210
  atomic energy  EATOM  =     11890.63736546
  Solvation  Ediel_sol  =         0.00000000
  ---------------------------------------------------
  free energy    TOTEN  =      1029.62769207 eV

  energy without entropy =     1029.63114225  energy(sigma->0) =     1029.62884213


--------------------------------------------------------------------------------------------------------




--------------------------------------- Iteration      1(   2)  ---------------------------------------


     EDDAV:  cpu time   17.1401: real time   17.1534
       DOS:  cpu time    0.0083: real time    0.0083
    --------------------------------------------
      LOOP:  cpu time   17.1483: real time   17.1617

 eigenvalue-minimisations  : 23960
 total energy-change (2. order) :-0.1058199E+04  (-0.9839678E+03)
 number of electron     168.0000000 magnetization 
 augmentation part      168.0000000 magnetization 

 Free energy of the ion-electron system (eV)
  ---------------------------------------------------
  alpha Z        PSCENC =       324.87461712
  Ewald energy   TEWEN  =    101195.63219676
  -Hartree energ DENC   =   -113480.13874034
  -exchange      EXHF   =         0.00000000
  -V(xc)+E(xc)   XCENC  =        69.41141731
  PAW double counting   =     11288.27476651   -10829.50941267
  entropy T*S    EENTRO =         0.00476418
  eigenvalues    EBANDS =      -487.75850824
  atomic energy  EATOM  =     11890.63736546
  Solvation  Ediel_sol  =         0.00000000
  ---------------------------------------------------
  free energy    TOTEN  =       -28.57153390 eV

  energy without entropy =      -28.57629808  energy(sigma->0) =      -28.57312196


--------------------------------------------------------------------------------------------------------




--------------------------------------- Iteration      1(   3)  ---------------------------------------


     EDDAV:  cpu time   16.5158: real time   16.5261
       DOS:  cpu time    0.0086: real time    0.0085
    --------------------------------------------
      LOOP:  cpu time   16.5243: real time   16.5347

 eigenvalue-minimisations  : 22912
 total energy-change (2. order) :-0.9205741E+02  (-0.8513086E+02)
 number of electron     168.0000000 magnetization 
 augmentation part      168.0000000 magnetization 

 Free energy of the ion-electron system (eV)
  ---------------------------------------------------
  alpha Z        PSCENC =       324.87461712
  Ewald energy   TEWEN  =    101195.63219676
  -Hartree energ DENC   =   -113480.13874034
  -exchange      EXHF   =         0.00000000
  -V(xc)+E(xc)   XCENC  =        69.41141731
  PAW double counting   =     11288.27476651   -10829.50941267
  entropy T*S    EENTRO =        -0.01860074
  eigenvalues    EBANDS =      -579.79255252
  atomic energy  EATOM  =     11890.63736546
  Solvation  Ediel_sol  =         0.00000000
  ---------------------------------------------------
  free energy    TOTEN  =      -120.62894311 eV

  energy without entropy =     -120.61034237  energy(sigma->0) =     -120.62274286


--------------------------------------------------------------------------------------------------------




--------------------------------------- Iteration      1(   4)  ---------------------------------------


     EDDAV:  cpu time   18.0193: real time   18.0204
       DOS:  cpu time    0.0086: real time    0.0086
    --------------------------------------------
      LOOP:  cpu time   18.0279: real time   18.0290

 eigenvalue-minimisations  : 25616
 total energy-change (2. order) :-0.4468630E+01  (-0.4251410E+01)
 number of electron     168.0000000 magnetization 
 augmentation part      168.0000000 magnetization 

 Free energy of the ion-electron system (eV)
  ---------------------------------------------------
  alpha Z        PSCENC =       324.87461712
  Ewald energy   TEWEN  =    101195.63219676
  -Hartree energ DENC   =   -113480.13874034
  -exchange      EXHF   =         0.00000000
  -V(xc)+E(xc)   XCENC  =        69.41141731
  PAW double counting   =     11288.27476651   -10829.50941267
  entropy T*S    EENTRO =        -0.02734618
  eigenvalues    EBANDS =      -584.25243758
  atomic energy  EATOM  =     11890.63736546
  Solvation  Ediel_sol  =         0.00000000
  ---------------------------------------------------
  free energy    TOTEN  =      -125.09757361 eV

  energy without entropy =     -125.07022743  energy(sigma->0) =     -125.08845821


--------------------------------------------------------------------------------------------------------




--------------------------------------- Iteration      1(   5)  ---------------------------------------


     EDDAV:  cpu time   18.6703: real time   18.6761
       DOS:  cpu time    0.0088: real time    0.0088
    CHARGE:  cpu time    0.7166: real time    0.7166
    MIXING:  cpu time    0.0010: real time    0.0010
    --------------------------------------------
      LOOP:  cpu time   19.3967: real time   19.4025

 eigenvalue-minimisations  : 26772
 total energy-change (2. order) :-0.1430431E+00  (-0.1416265E+00)
 number of electron     168.0000071 magnetization 
 augmentation part       47.0879390 magnetization 

 Broyden mixing:
  rms(total) = 0.43115E+01    rms(broyden)= 0.43114E+01
  rms(prec ) = 0.43530E+01
  weight for this iteration     100.00

 Free energy of the ion-electron system (eV)
  ---------------------------------------------------
  alpha Z        PSCENC =       324.87461712
  Ewald energy   TEWEN  =    101195.63219676
  -Hartree energ DENC   =   -113480.13874034
  -exchange      EXHF   =         0.00000000
  -V(xc)+E(xc)   XCENC  =        69.41141731
  PAW double counting   =     11288.27476651   -10829.50941267
  entropy T*S    EENTRO =        -0.02748323
  eigenvalues    EBANDS =      -584.39534362
  atomic energy  EATOM  =     11890.63736546
  Solvation  Ediel_sol  =         0.00000000
  ---------------------------------------------------
  free energy    TOTEN  =      -125.24061670 eV

  energy without entropy =     -125.21313347  energy(sigma->0) =     -125.23145562


--------------------------------------------------------------------------------------------------------




--------------------------------------- Iteration      1(   6)  ---------------------------------------


    POTLOK:  cpu time    0.0235: real time    0.0240
    SETDIJ:  cpu time    0.0035: real time    0.0035
     EDDAV:  cpu time   16.5032: real time   16.5061
       DOS:  cpu time    0.0098: real time    0.0097
    CHARGE:  cpu time    0.7370: real time    0.7370
    MIXING:  cpu time    0.0011: real time    0.0011
    --------------------------------------------
      LOOP:  cpu time   17.2780: real time   17.2814

 eigenvalue-minimisations  : 22872
 total energy-change (2. order) : 0.6643865E+01  (-0.3208482E+01)
 number of electron     168.0000070 magnetization 
 augmentation part       49.8522631 magnetization 

 Broyden mixing:
  rms(total) = 0.32222E+01    rms(broyden)= 0.32221E+01
  rms(prec ) = 0.33569E+01
  weight for this iteration     100.00

 eigenvalues of (default mixing * dielectric matrix)
  average eigenvalue GAMMA=   1.1950
  1.1950

 Free energy of the ion-electron system (eV)
  ---------------------------------------------------
  alpha Z        PSCENC =       324.87461712
  Ewald energy   TEWEN  =    101195.63219676
  -Hartree energ DENC   =   -113285.86147702
  -exchange      EXHF   =         0.00000000
  -V(xc)+E(xc)   XCENC  =        66.32896384
  PAW double counting   =     12566.30381453   -12131.19813603
  entropy T*S    EENTRO =        -0.03764137
  eigenvalues    EBANDS =      -745.27645510
  atomic energy  EATOM  =     11890.63736546
  Solvation  Ediel_sol  =         0.00000000
  ---------------------------------------------------
  free energy    TOTEN  =      -118.59675181 eV

  energy without entropy =     -118.55911044  energy(sigma->0) =     -118.58420469


--------------------------------------------------------------------------------------------------------




--------------------------------------- Iteration      1(   7)  ---------------------------------------


    POTLOK:  cpu time    0.0222: real time    0.0240
    SETDIJ:  cpu time    0.0035: real time    0.0035
     EDDAV:  cpu time   17.6477: real time   17.6494
       DOS:  cpu time    0.0092: real time    0.0092
    CHARGE:  cpu time    0.7177: real time    0.7177
    MIXING:  cpu time    0.0015: real time    0.0015
    --------------------------------------------
      LOOP:  cpu time   18.4018: real time   18.4053

 eigenvalue-minimisations  : 24732
 total energy-change (2. order) :-0.2839228E+02  (-0.1336324E+02)
 number of electron     168.0000074 magnetization 
 augmentation part       48.6135367 magnetization 

 Broyden mixing:
  rms(total) = 0.46719E+01    rms(broyden)= 0.46718E+01
  rms(prec ) = 0.54042E+01
  weight for this iteration     100.00

 eigenvalues of (default mixing * dielectric matrix)
  average eigenvalue GAMMA=   1.0814
  1.9195  0.2434

 Free energy of the ion-electron system (eV)
  ---------------------------------------------------
  alpha Z        PSCENC =       324.87461712
  Ewald energy   TEWEN  =    101195.63219676
  -Hartree energ DENC   =   -113446.33568951
  -exchange      EXHF   =         0.00000000
  -V(xc)+E(xc)   XCENC  =        65.81738796
  PAW double counting   =     13480.07552626   -13054.18981220
  entropy T*S    EENTRO =        -0.00811088
  eigenvalues    EBANDS =      -603.49251126
  atomic energy  EATOM  =     11890.63736546
  Solvation  Ediel_sol  =         0.00000000
  ---------------------------------------------------
  free energy    TOTEN  =      -146.98903029 eV

  energy without entropy =     -146.98091941  energy(sigma->0) =     -146.98632666


--------------------------------------------------------------------------------------------------------




--------------------------------------- Iteration      1(   8)  ---------------------------------------


    POTLOK:  cpu time    0.0237: real time    0.0241
    SETDIJ:  cpu time    0.0035: real time    0.0035
     EDDAV:  cpu time   18.2441: real time   18.2452
       DOS:  cpu time    0.0099: real time    0.0099
    CHARGE:  cpu time    0.7199: real time    0.7199
    MIXING:  cpu time    0.0012: real time    0.0012
    --------------------------------------------
      LOOP:  cpu time   19.0023: real time   19.0039

 eigenvalue-minimisations  : 25996
 total energy-change (2. order) : 0.1332769E+02  (-0.5601080E+01)
 number of electron     168.0000092 magnetization 
 augmentation part       50.2600971 magnetization 

 Broyden mixing:
  rms(total) = 0.36414E+01    rms(broyden)= 0.36414E+01
  rms(prec ) = 0.42875E+01
  weight for this iteration     100.00

 eigenvalues of (default mixing * dielectric matrix)
  average eigenvalue GAMMA=   0.8786
  2.1059  0.2650  0.2650

 Free energy of the ion-electron system (eV)
  ---------------------------------------------------
  alpha Z        PSCENC =       324.87461712
  Ewald energy   TEWEN  =    101195.63219676
  -Hartree energ DENC   =   -113381.00700152
  -exchange      EXHF   =         0.00000000
  -V(xc)+E(xc)   XCENC  =        65.26933086
  PAW double counting   =     14379.27803830   -13963.78879069
  entropy T*S    EENTRO =        -0.00382843
  eigenvalues    EBANDS =      -644.55326418
  atomic energy  EATOM  =     11890.63736546
  Solvation  Ediel_sol  =         0.00000000
[...]
     21      -5.1204      2.00000
     22      -5.0681      2.00000
     23      -4.9537      2.00000
     24      -4.8642      2.00000
     25      -4.7642      2.00000
     26      -4.7071      2.00000
     27      -4.6945      2.00000
     28      -4.6078      2.00000
     29      -4.5490      2.00000
     30      -4.4770      2.00000
     31      -4.4574      2.00000
     32      -4.4419      2.00000
     33      -4.1859      2.00000
     34      -4.1223      2.00000
     35      -4.0815      2.00000
     36      -4.0367      2.00000
     37      -3.9418      2.00000
     38      -3.8647      2.00000
     39      -3.8361      2.00000
     40      -3.7226      2.00000
     41      -3.6390      2.00000
     42      -3.5721      2.00000
     43      -3.5438      2.00000
     44      -3.4905      2.00000
     45      -3.4342      2.00000
     46      -3.3417      2.00000
     47      -3.2603      2.00000
     48      -3.1413      2.00000
     49      -3.1179      2.00000
     50      -3.0613      2.00000
     51      -3.0406      2.00000
     52      -2.9936      2.00000
     53      -2.9596      2.00000
     54      -2.8358      2.00000
     55      -2.7687      2.00000
     56      -2.6996      2.00000
     57      -2.5772      2.00000
     58      -2.3969      2.00000
     59      -2.3389      2.00000
     60      -2.2711      2.00000
     61      -2.2496      2.00000
     62      -2.2047      2.00000
     63      -2.0776      2.00000
     64      -2.0181      2.00000
     65      -1.9382      2.00000
     66      -1.8721      2.00000
     67      -1.7837      2.00000
     68      -1.7319      2.00000
     69      -1.6575      2.00000
     70      -1.5930      2.00000
     71      -1.5201      2.00000
     72      -1.4119      2.00000
     73      -1.3636      2.00000
     74      -1.3078      2.00000
     75      -1.2209      2.00000
     76      -1.1648      2.00000
     77      -1.0977      2.00000
     78      -0.9654      2.00000
     79      -0.8391      2.00005
     80      -0.7399      2.00079
     81      -0.6984      2.00213
     82      -0.4331      2.07058
     83      -0.3735      2.02086
     84      -0.2996      1.76684
     85      -0.2392      1.36680
     86      -0.1390      0.54864
     87      -0.0698      0.13906
     88       0.0061     -0.05097
     89       0.1766     -0.02474
     90       0.3687     -0.00050
     91       0.7924     -0.00000
     92       1.1040     -0.00000
     93       2.0314     -0.00000
     94       2.1473     -0.00000
     95       2.3493     -0.00000
     96       2.9411     -0.00000
     97       3.7095     -0.00000
     98       4.0139     -0.00000
     99       4.4574     -0.00000
    100       4.5420     -0.00000

 k-point    96 :      -0.4375    0.1250    0.0000
  band No.  band energies     occupation 
      1     -13.2330      2.00000
      2      -7.7362      2.00000
      3      -7.7235      2.00000
      4      -6.8874      2.00000
      5      -6.7364      2.00000
      6      -6.3739      2.00000
      7      -6.2507      2.00000
      8      -6.0161      2.00000
      9      -5.9407      2.00000
     10      -5.8654      2.00000
     11      -5.7890      2.00000
     12      -5.7385      2.00000
     13      -5.7070      2.00000
     14      -5.6702      2.00000
     15      -5.5838      2.00000
     16      -5.5601      2.00000
     17      -5.4376      2.00000
     18      -5.3731      2.00000
     19      -5.1958      2.00000
     20      -5.1350      2.00000
     21      -5.1167      2.00000
     22      -5.0700      2.00000
     23      -4.9713      2.00000
     24      -4.8667      2.00000
     25      -4.7605      2.00000
     26      -4.7016      2.00000
     27      -4.6930      2.00000
     28      -4.5940      2.00000
     29      -4.5555      2.00000
     30      -4.4884      2.00000
     31      -4.4621      2.00000
     32      -4.4326      2.00000
     33      -4.2115      2.00000
     34      -4.1329      2.00000
     35      -4.0767      2.00000
     36      -4.0355      2.00000
     37      -3.9314      2.00000
     38      -3.8457      2.00000
     39      -3.8193      2.00000
     40      -3.7338      2.00000
     41      -3.6438      2.00000
     42      -3.5785      2.00000
     43      -3.5303      2.00000
     44      -3.4912      2.00000
     45      -3.4259      2.00000
     46      -3.3566      2.00000
     47      -3.2583      2.00000
     48      -3.1557      2.00000
     49      -3.1154      2.00000
     50      -3.0679      2.00000
     51      -3.0354      2.00000
     52      -2.9904      2.00000
     53      -2.9654      2.00000
     54      -2.8833      2.00000
     55      -2.7664      2.00000
     56      -2.7210      2.00000
     57      -2.5421      2.00000
     58      -2.3998      2.00000
     59      -2.3444      2.00000
     60      -2.2819      2.00000
     61      -2.2472      2.00000
     62      -2.2263      2.00000
     63      -2.0947      2.00000
     64      -2.0028      2.00000
     65      -1.9216      2.00000
     66      -1.8761      2.00000
     67      -1.7994      2.00000
     68      -1.7235      2.00000
     69      -1.6449      2.00000
     70      -1.5755      2.00000
     71      -1.4996      2.00000
     72      -1.4515      2.00000
     73      -1.3861      2.00000
     74      -1.2776      2.00000
     75      -1.2455      2.00000
     76      -1.1667      2.00000
     77      -1.1030      2.00000
     78      -0.9723      2.00000
     79      -0.8383      2.00005
     80      -0.6924      2.00243
     81      -0.6512      2.00578
     82      -0.5406      2.03454
     83      -0.3499      1.96762
     84      -0.2796      1.65209
     85      -0.2632      1.54402
     86      -0.1779      0.85888
     87      -0.0280      0.00381
     88       0.0190     -0.06167
     89       0.1554     -0.03286
     90       0.4157     -0.00014
     91       0.7922     -0.00000
     92       1.1066     -0.00000
     93       2.0143     -0.00000
     94       2.1296     -0.00000
     95       2.4054     -0.00000
     96       2.9372     -0.00000
     97       3.7127     -0.00000
     98       3.9847     -0.00000
     99       4.4530     -0.00000
    100       4.5330     -0.00000


--------------------------------------------------------------------------------------------------------


 soft charge-density along one line, spin component           1
         0         1         2         3         4         5         6         7         8         9
 total charge-density along one line
 
 pseudopotential strength for first ion, spin component:           1
 -7.817  -0.001   0.001  -0.006   0.001  -7.969  -0.001   0.001
 -0.001  -7.745  -0.001  -0.002  -0.005  -0.001  -7.898  -0.001
  0.001  -0.001  -7.740  -0.001   0.000   0.001  -0.001  -7.893
 -0.006  -0.002  -0.001  -7.748  -0.001  -0.006  -0.002  -0.001
  0.001  -0.005   0.000  -0.001  -7.818   0.001  -0.005   0.000
 -7.969  -0.001   0.001  -0.006   0.001  -8.104  -0.001   0.001
 -0.001  -7.898  -0.001  -0.002  -0.005  -0.001  -8.035  -0.001
  0.001  -0.001  -7.893  -0.001   0.000   0.001  -0.001  -8.030
 -0.006  -0.002  -0.001  -7.901  -0.001  -0.006  -0.002  -0.001
  0.001  -0.005   0.000  -0.001  -7.970   0.001  -0.005   0.000
  0.001   0.000  -0.023   0.001   0.000   0.001   0.000  -0.023
  0.001   0.001  -0.034   0.001   0.001   0.001   0.001  -0.034
  0.001   0.003   0.000  -0.000   0.000   0.001   0.003   0.000
 -0.000  -0.001   0.005   0.001  -0.000  -0.000  -0.001   0.004
 -0.001  -0.000  -0.000   0.003   0.000  -0.001  -0.000  -0.000
  0.001   0.002   0.000  -0.000   0.000   0.001   0.002   0.000
 -0.000  -0.001   0.004   0.001  -0.000  -0.000  -0.001   0.003
 -0.002  -0.000  -0.000   0.002   0.001  -0.002  -0.000  -0.000
 total augmentation occupancy for first ion, spin component:           1
  5.000   0.007   0.011  -0.045   0.089  -3.154  -0.008  -0.014  -0.049  -0.069   0.003  -0.015   0.005   0.009   0.049   0.000
  0.007   4.916  -0.016  -0.036  -0.018  -0.008  -2.644   0.007   0.016  -0.068  -0.010  -0.005   0.218  -0.002   0.002  -0.009
  0.011  -0.016   5.388   0.002  -0.007  -0.014   0.007  -3.246  -0.007   0.003   0.814  -0.070   0.001   0.408  -0.000   0.000
 -0.045  -0.036   0.002   4.860  -0.020  -0.047   0.016  -0.007  -2.619   0.013  -0.023   0.010   0.004   0.008   0.219  -0.001
  0.089  -0.018  -0.007  -0.020   4.893  -0.069  -0.070   0.003   0.013  -3.072  -0.001  -0.003   0.047   0.006   0.008  -0.001
 -3.154  -0.008  -0.014  -0.047  -0.069   3.177   0.009   0.016   0.118   0.053  -0.005   0.014  -0.006  -0.007  -0.045   0.000
 -0.008  -2.644   0.007   0.016  -0.070   0.009   2.340  -0.000  -0.002   0.135   0.008   0.004  -0.202   0.001  -0.002   0.009
 -0.014   0.007  -3.246  -0.007   0.003   0.016  -0.000   3.046   0.012   0.000  -0.740   0.083  -0.002  -0.399   0.002   0.000
 -0.049   0.016  -0.007  -2.619   0.013   0.118  -0.002   0.012   2.337  -0.007   0.021  -0.009  -0.003  -0.009  -0.204   0.000
 -0.069  -0.068   0.003   0.013  -3.072   0.053   0.135   0.000  -0.007   3.114   0.001   0.004  -0.044  -0.004  -0.009   0.001
  0.003  -0.010   0.814  -0.023  -0.001  -0.005   0.008  -0.740   0.021   0.001   2.611  -0.608   0.001  -0.166  -0.006  -0.000
 -0.015  -0.005  -0.070   0.010  -0.003   0.014   0.004   0.083  -0.009   0.004  -0.608   0.181   0.001   0.075   0.001  -0.000
  0.005   0.218   0.001   0.004   0.047  -0.006  -0.202  -0.002  -0.003  -0.044   0.001   0.001   0.236   0.001   0.001  -0.007
  0.009  -0.002   0.408   0.008   0.006  -0.007   0.001  -0.399  -0.009  -0.004  -0.166   0.075   0.001   0.136   0.000   0.000
  0.049   0.002  -0.000   0.219   0.008  -0.045  -0.002   0.002  -0.204  -0.009  -0.006   0.001   0.001   0.000   0.238  -0.000
  0.000  -0.009   0.000  -0.001  -0.001   0.000   0.009   0.000   0.000   0.001  -0.000  -0.000  -0.007   0.000  -0.000   0.000
 -0.001  -0.001  -0.008   0.001  -0.000   0.000   0.000   0.011  -0.000   0.000   0.009  -0.003  -0.000  -0.004  -0.000  -0.000
 -0.003  -0.001   0.000  -0.010   0.000   0.002   0.000  -0.000   0.009   0.000   0.000  -0.000  -0.000  -0.000  -0.007  -0.000


------------------------ aborting loop because EDIFF is reached ----------------------------------------



 DIPCOR: dipole corrections for dipol
 direction  3 min pos    22,
 dipolmoment           0.000000      0.000000     -0.309909 electrons x Angstroem
 Tr[quadrupol]      -954.302809

 energy correction for charged system         0.000000 eV
 dipol+quadrupol energy correction            0.010544 eV
 added-field ion interaction          0.000000 eV  (added to PSCEN)

 
  *************** adding dipol energy to TOTEN NOW **************** 
    CHARGE:  cpu time    0.7151: real time    0.7151
    FORLOC:  cpu time    0.0070: real time    0.0070
    FORNL :  cpu time    3.2731: real time    3.2732
    STRESS:  cpu time    9.8664: real time    9.8667
    FORCOR:  cpu time    0.0285: real time    0.0285
    FORHAR:  cpu time    0.0119: real time    0.0119
    MIXING:  cpu time    0.0038: real time    0.0038
    OFIELD:  cpu time    0.0000: real time    0.0000

  FORCE on cell =-STRESS in cart. coord.  units (eV):
  Direction    XX          YY          ZZ          XY          YZ          ZX
  --------------------------------------------------------------------------------------
  Alpha Z   324.87462   324.87462   324.87462
  Ewald  110091.09606110093.62441************     2.76323    11.33032     5.12523
  Hartree112588.97719112592.07616************    -0.71174     2.85598     1.99821
  E(xc)    -737.66821  -737.67776  -741.75263     0.00204     0.09564     0.01691
  Local  ************************227848.48367    -1.72384   -11.61331    -6.41696
  n-local    45.16385    44.98961    28.47392    -0.42215    -0.24380    -0.25960
  augment   835.05253   835.49437   860.96495     0.21665    -0.68009    -0.10098
  Kinetic  2386.54341  2386.50843  2452.62614    -0.14144    -1.97317    -0.46472
  Fock        0.00000     0.00000     0.00000     0.00000     0.00000     0.00000
  -------------------------------------------------------------------------------------
  Total      -9.98369    -9.99262     2.36970    -0.01725    -0.22844    -0.10192
  in kB     -19.40919   -19.42653     4.60690    -0.03353    -0.44410    -0.19815
  external pressure =      -11.41 kB  Pullay stress =        0.00 kB


 VOLUME and BASIS-vectors are now :
 -----------------------------------------------------------------------------
  energy-cutoff  :      350.00
  volume of cell :      824.13
      direct lattice vectors                 reciprocal lattice vectors
     5.557859300  0.000000000  0.000000000     0.179925390 -0.103879972  0.000000000
     2.778929650  4.813247345  0.000000000     0.000000000  0.207759944  0.000000000
     0.000000000  0.000000000 30.806959674     0.000000000  0.000000000  0.032460198

  length of vectors
     5.557859300  5.557859300 30.806959674     0.207759944  0.207759944  0.032460198


 FORCES acting on ions
    electron-ion (+dipol)            ewald-force                    non-local-force                 convergence-correction
 -----------------------------------------------------------------------------------------------
   0.191E+00 -.230E+01 -.286E+04   -.297E+00 0.242E+01 0.286E+04   0.159E+00 -.997E-01 0.353E+00   -.370E-03 0.992E-04 0.918E-02
   0.928E+00 0.315E+01 -.131E+04   -.113E+01 -.405E+01 0.131E+04   0.246E+00 0.971E+00 -.142E+01   -.817E-06 -.413E-04 -.303E-02
   -.174E+02 -.252E+02 -.312E+03   0.190E+02 0.275E+02 0.309E+03   -.170E+01 -.252E+01 0.310E+01   0.530E-04 -.336E-04 -.716E-03
   0.930E+01 -.379E+02 -.340E+03   -.104E+02 0.421E+02 0.344E+03   0.103E+01 -.429E+01 -.324E+01   0.301E-04 -.845E-04 -.767E-03
   0.409E+02 0.267E+02 -.324E+03   -.455E+02 -.297E+02 0.324E+03   0.461E+01 0.301E+01 0.625E+00   0.435E-04 0.235E-04 -.785E-03
   -.370E+02 0.282E+02 -.334E+03   0.413E+02 -.314E+02 0.336E+03   -.423E+01 0.320E+01 -.170E+01   -.670E-04 0.722E-04 -.776E-03
   -.311E+00 -.203E+00 0.266E+04   0.319E+00 0.187E+00 -.266E+04   0.384E-01 0.405E-02 -.156E+00   -.950E-04 -.112E-03 0.483E-02
   -.909E+00 -.433E+01 -.261E+04   0.102E+01 0.452E+01 0.261E+04   -.137E+00 -.166E+00 0.866E+00   0.288E-03 0.221E-03 0.839E-02
   -.440E+00 0.159E+01 -.261E+04   0.543E+00 -.170E+01 0.261E+04   -.963E-01 0.113E+00 0.933E+00   0.121E-03 0.286E-04 0.823E-02
   0.324E+01 0.821E+01 -.255E+04   -.352E+01 -.870E+01 0.255E+04   0.291E+00 0.525E+00 0.257E+01   -.169E-03 -.355E-03 0.811E-02
   -.267E+01 -.484E+01 -.712E+03   0.262E+01 0.499E+01 0.711E+03   0.419E-01 -.592E-02 0.274E+00   0.393E-03 0.496E-03 0.250E-01
   0.811E-01 0.153E+00 0.295E+04   -.106E+00 -.174E+00 -.295E+04   0.314E-02 0.588E-01 -.667E+00   0.103E-03 -.336E-04 0.507E-02
   -.500E+01 0.729E+00 -.711E+03   0.513E+01 -.787E+00 0.710E+03   -.109E-01 -.150E-01 0.418E+00   0.719E-03 0.148E-03 0.252E-01
   -.128E+00 -.554E+01 0.114E+04   0.154E+00 0.578E+01 -.114E+04   -.310E-01 -.727E-01 -.489E+00   -.283E-03 0.545E-04 0.212E-01
   0.411E+00 0.507E+00 0.114E+04   -.392E+00 -.513E+00 -.114E+04   -.107E-01 0.162E-01 -.365E+00   0.284E-03 -.433E-04 0.212E-01
   0.537E+01 0.305E+01 0.115E+04   -.556E+01 -.312E+01 -.115E+04   0.393E-01 -.255E-01 -.300E+00   -.832E-04 0.161E-03 0.210E-01
   -.517E+01 0.263E+01 0.115E+04   0.539E+01 -.271E+01 -.115E+04   -.642E-01 0.222E-02 -.263E+00   0.754E-04 -.171E-03 0.213E-01
   -.415E-01 0.175E+00 0.296E+04   0.994E-02 -.138E+00 -.295E+04   0.689E-01 -.424E-01 -.722E+00   0.786E-04 0.137E-03 0.505E-02
   -.333E+00 -.218E-01 0.295E+04   0.344E+00 0.794E-01 -.295E+04   -.394E-01 -.397E-01 -.733E+00   -.813E-04 0.184E-04 0.535E-02
   0.505E+01 0.315E+01 -.714E+03   -.520E+01 -.326E+01 0.714E+03   0.452E-02 0.178E-01 0.268E+00   -.718E-03 -.313E-03 0.255E-01
   0.392E+01 0.151E+01 -.722E+03   -.377E+01 -.144E+01 0.722E+03   -.191E+00 -.720E-01 0.121E+00   -.403E-03 -.334E-03 0.258E-01
 -----------------------------------------------------------------------------------------------
   -.270E-01 -.547E+00 0.275E+00   -.488E-13 0.104E-13 -.568E-12   0.201E-01 0.563E+00 -.527E+00   -.817E-04 -.615E-04 0.234E+00
 
 
 POSITION                                       TOTAL-FORCE (eV/Angst)
 -----------------------------------------------------------------------------------
      4.18330      2.39016     19.02411         0.053105      0.014389      1.032612
      0.12873      0.18105     21.71150         0.040703      0.069950      0.182782
      0.49969      0.73473     20.77899        -0.104208     -0.218719      0.227385
      5.48250      1.03567     22.36792        -0.023627     -0.016542      0.297313
      7.55052      4.39920     21.58159         0.051857      0.053416     -0.040137
      3.73797      4.36845     22.05501         0.007449      0.017503      0.170911
      2.79991      0.01433     12.11482         0.047342     -0.013114      1.100145
      1.41442      2.38854     19.04016        -0.028296      0.029285     -0.209321
      5.57988      4.79240     19.03273         0.007219      0.010210     -0.140612
      2.78804      4.78639     19.04430         0.019743      0.029509     -0.278236
      4.20120      4.01391     16.71910        -0.004682      0.144865     -0.192892
      0.02194      0.01568     12.11102        -0.021249      0.036876     -0.148900
      5.59328      1.60728     16.71556         0.122240     -0.073297     -0.400247
      5.59249      3.22389     14.43970        -0.004969      0.166715     -0.275207
      2.81208      3.22162     14.43374         0.009028      0.009164      0.028688
      4.20159      0.81610     14.43144        -0.145550     -0.090962     -0.293463
      1.42151      0.81534     14.43376         0.151954     -0.086386     -0.607975
      4.19020      2.42278     12.10854         0.037766     -0.005729     -0.120361
      1.41005      2.42225     12.11334        -0.027617      0.017316     -0.138555
      2.81170      1.60170     16.72414        -0.147381     -0.088718     -0.208246
      6.99103      4.01482     16.72949        -0.040829     -0.005730      0.014315
 -----------------------------------------------------------------------------------
    total drift:                               -0.006987      0.015197     -0.017828


--------------------------------------------------------------------------------------------------------



  FREE ENERGIE OF THE ION-ELECTRON SYSTEM (eV)
  ---------------------------------------------------
  free  energy   TOTEN  =      -115.63273789 eV

  energy  without entropy=     -115.59299050  energy(sigma->0) =     -115.61948876
 


--------------------------------------------------------------------------------------------------------


    POTLOK:  cpu time    0.0260: real time    0.0260


--------------------------------------------------------------------------------------------------------


     LOOP+:  cpu time  593.9445: real time  594.0863
    4ORBIT:  cpu time    0.0000: real time    0.0000

 total amount of memory used by VASP MPI-rank0   164312. kBytes
=======================================================================

   base      :      30000. kBytes
   nonlr-proj:       2359. kBytes
   fftplans  :       2967. kBytes
   grid      :       6321. kBytes
   one-center:         93. kBytes
   wavefun   :     122572. kBytes
 
  
  
 General timing and accounting informations for this job:
 ========================================================
  
                  Total CPU time used (sec):      601.500
                            User time (sec):      597.669
                          System time (sec):        3.832
                         Elapsed time (sec):      601.895
  
                   Maximum memory used (kb):      206776.
                   Average memory used (kb):           0.
  
                          Minor page faults:        84273
                          Major page faults:            0
                 Voluntary context switches:          911
