       N       E                     dE             d eps       ncg     rms          rms(c)
DAV:   1     0.102493648067E+04    0.10249E+04   -0.58277E+04 19288   0.103E+03
DAV:   2    -0.287544498462E+02   -0.10537E+04   -0.97808E+03 23872   0.259E+02
DAV:   3    -0.120861183606E+03   -0.92107E+02   -0.85069E+02 22960   0.759E+01
DAV:   4    -0.125307514506E+03   -0.44463E+01   -0.42385E+01 25560   0.169E+01
DAV:   5    -0.125449756565E+03   -0.14224E+00   -0.14097E+00 26940   0.297E+00    0.429E+01
DAV:   6    -0.120024553483E+03    0.54252E+01   -0.33759E+01 22828   0.237E+01    0.353E+01
DAV:   7    -0.172167660958E+03   -0.52143E+02   -0.23272E+02 29000   0.811E+01    0.583E+01
DAV:   8    -0.145691357590E+03    0.26476E+02   -0.99322E+01 27592   0.440E+01    0.454E+01
DAV:   9    -0.136139402106E+03    0.95520E+01   -0.60117E+01 33088   0.470E+01    0.329E+01
DAV:  10    -0.119422513226E+03    0.16717E+02   -0.45918E+01 27040   0.368E+01    0.193E+01
DAV:  11    -0.117479992974E+03    0.19425E+01   -0.25796E+01 28020   0.192E+01    0.151E+01
DAV:  12    -0.116018201238E+03    0.14618E+01   -0.95258E+00 26744   0.116E+01    0.680E+00
DAV:  13    -0.115761733528E+03    0.25647E+00   -0.64755E-01 27916   0.384E+00    0.492E+00
DAV:  14    -0.115692829550E+03    0.68904E-01   -0.11059E-01 24112   0.161E+00    0.454E+00
DAV:  15    -0.115655693166E+03    0.37136E-01   -0.12325E-01 25912   0.145E+00    0.352E+00
DAV:  16    -0.115660823035E+03   -0.51299E-02   -0.22839E-01 20476   0.232E+00    0.193E+00
DAV:  17    -0.115618287295E+03    0.42536E-01   -0.10905E-01 21284   0.159E+00    0.948E-01
DAV:  18    -0.115608784303E+03    0.95030E-02   -0.23962E-02 23844   0.688E-01    0.610E-01
DAV:  19    -0.115605147751E+03    0.36366E-02   -0.88194E-03 23148   0.420E-01    0.494E-01
DAV:  20    -0.115602474428E+03    0.26733E-02   -0.57967E-03 23776   0.314E-01    0.292E-01
DAV:  21    -0.115601792249E+03    0.68218E-03   -0.27791E-03 21792   0.240E-01    0.241E-01
DAV:  22    -0.115601705526E+03    0.86723E-04   -0.18525E-03 22064   0.182E-01    0.299E-01
DAV:  23    -0.115600844086E+03    0.86144E-03   -0.21436E-03 25228   0.196E-01    0.869E-02
DAV:  24    -0.115600820730E+03    0.23356E-04   -0.38731E-04 22804   0.842E-02    0.458E-02
DAV:  25    -0.115600842925E+03   -0.22195E-04   -0.82302E-05 19388   0.403E-02    0.264E-02
DAV:  26    -0.115600971436E+03   -0.12851E-03   -0.13768E-04 20840   0.443E-02    0.375E-02
DAV:  27    -0.115601038217E+03   -0.66782E-04   -0.71349E-05 17336   0.359E-02    0.198E-02
DAV:  28    -0.115601171855E+03   -0.13364E-03   -0.29979E-05 14152   0.237E-02    0.154E-02
DAV:  29    -0.115601261039E+03   -0.89184E-04   -0.19297E-05 13288   0.191E-02    0.178E-02
DAV:  30    -0.115601391893E+03   -0.13085E-03   -0.14669E-05 12848   0.175E-02    0.217E-02
DAV:  31    -0.115601462872E+03   -0.70979E-04   -0.80331E-06 11800   0.109E-02    0.117E-02
DAV:  32    -0.115601509979E+03   -0.47106E-04   -0.39051E-06 11428   0.743E-03    0.552E-03
DAV:  33    -0.115601569734E+03   -0.59755E-04   -0.42648E-06 11920   0.747E-03    0.536E-03
DAV:  34    -0.115601585893E+03   -0.16159E-04   -0.89022E-07 11208   0.343E-03    0.599E-03
DAV:  35    -0.115601597450E+03   -0.11557E-04   -0.46049E-07 10804   0.221E-03    0.549E-03
DAV:  36    -0.115601605167E+03   -0.77174E-05   -0.50179E-07 10528   0.266E-03
   1 F= -.11559868E+03 E0= -.11559438E+03  d E =-.129056E-01
