 vasp.5.4.4.18Apr17-6-g9f103f2a35 (build Apr 28 2017 10:53:45) complex          
  
 executed on             LinuxIFC date 2019.07.18  17:04:31
 running on   16 total cores
 distrk:  each k-point on   16 cores,    1 groups
 distr:  one band on NCORES_PER_BAND=   4 cores,    4 groups


--------------------------------------------------------------------------------------------------------


 INCAR:
 POTCAR:    PAW_PBE Au 04Oct2007                  
 POTCAR:    PAW_PBE C 08Apr2002                   
 POTCAR:    PAW_PBE H 15Jun2001                   
 POTCAR:    PAW_PBE Ir 06Sep2000                  
 POTCAR:    PAW_PBE Pt 04Feb2005                  
 POTCAR:    PAW_PBE Au 04Oct2007                  
   VRHFIN =Au: s1d10                                                            
   LEXCH  = PE                                                                  
   EATOM  =   926.0867 eV,   68.0654 Ry                                         
                                                                                
   TITEL  = PAW_PBE Au 04Oct2007                                                
   LULTRA =        F    use ultrasoft PP ?                                      
   IUNSCR =        1    unscreen: 0-lin 1-nonlin 2-no                           
   RPACOR =    2.330    partial core radius                                     
   POMASS =  196.966; ZVAL   =   11.000    mass and valenz                      
   RCORE  =    2.500    outmost cutoff radius                                   
   RWIGS  =    2.840; RWIGS  =    1.503    wigner-seitz radius (au A)           
   ENMAX  =  229.943; ENMIN  =  172.457 eV                                      
   ICORE  =        3    local potential                                         
   LCOR   =        T    correct aug charges                                     
   LPAW   =        T    paw PP                                                  
   EAUG   =  356.670                                                            
   DEXC   =    0.000                                                            
   RMAX   =    2.562    core radius for proj-oper                               
   RAUG   =    1.300    factor for augmentation sphere                          
   RDEP   =    2.598    radius for radial grids                                 
   RDEPT  =    2.193    core radius for aug-charge                              
                                                                                
   Atomic configuration                                                         
   16 entries                                                                   
     n  l   j            E        occ.                                          
     1  0  0.50    -80748.5001   2.0000                                         
     2  0  0.50    -14244.7466   2.0000                                         
     2  1  1.50    -12310.9591   6.0000                                         
     3  0  0.50     -3362.1768   2.0000                                         
     3  1  1.50     -2801.5463   6.0000                                         
     3  2  2.50     -2203.8206  10.0000                                         
     4  0  0.50      -729.8168   2.0000                                         
     4  1  1.50      -546.0527   6.0000                                         
     4  2  2.50      -325.7302  10.0000                                         
     4  3  3.50       -81.1472  14.0000                                         
     5  0  0.50      -108.3201   2.0000                                         
     5  1  1.50       -59.7479   6.0000                                         
     5  2  2.50        -6.8783  10.0000                                         
     6  0  0.50        -5.7602   1.0000                                         
     6  1  1.50        -6.8029   0.0000                                         
     5  3  2.50        -1.3606   0.0000                                         
   Description                                                                  
     l       E           TYP  RCUT    TYP  RCUT                                 
     2     -6.8782861     23  2.500                                             
     2     -8.2388687     23  2.500                                             
     0     -5.7601759     23  2.500                                             
     0     -0.8493231     23  2.500                                             
     1     -2.7211652     23  2.500                                             
     1     27.2116520     23  2.500                                             
     3     -1.3605826     23  2.500                                             
  local pseudopotential read in
  partial core-charges read in
  partial kinetic energy density read in
  atomic valenz-charges read in
  non local Contribution for L=           2  read in
    real space projection operators read in
  non local Contribution for L=           2  read in
    real space projection operators read in
  non local Contribution for L=           0  read in
    real space projection operators read in
  non local Contribution for L=           0  read in
    real space projection operators read in
  non local Contribution for L=           1  read in
    real space projection operators read in
  non local Contribution for L=           1  read in
    real space projection operators read in
    PAW grid and wavefunctions read in
 
   number of l-projection  operators is LMAX  =           6
   number of lm-projection operators is LMMAX =          18
 
 POTCAR:    PAW_PBE C 08Apr2002                   
   VRHFIN =C: s2p2                                                              
   LEXCH  = PE                                                                  
   EATOM  =   147.1560 eV,   10.8157 Ry                                         
                                                                                
   TITEL  = PAW_PBE C 08Apr2002                                                 
   LULTRA =        F    use ultrasoft PP ?                                      
   IUNSCR =        1    unscreen: 0-lin 1-nonlin 2-no                           
   RPACOR =    1.200    partial core radius                                     
   POMASS =   12.011; ZVAL   =    4.000    mass and valenz                      
   RCORE  =    1.500    outmost cutoff radius                                   
   RWIGS  =    1.630; RWIGS  =    0.863    wigner-seitz radius (au A)           
   ENMAX  =  400.000; ENMIN  =  300.000 eV                                      
   ICORE  =        2    local potential                                         
   LCOR   =        T    correct aug charges                                     
   LPAW   =        T    paw PP                                                  
   EAUG   =  644.873                                                            
   DEXC   =    0.000                                                            
   RMAX   =    1.529    core radius for proj-oper                               
   RAUG   =    1.300    factor for augmentation sphere                          
   RDEP   =    1.501    radius for radial grids                                 
   RDEPT  =    1.300    core radius for aug-charge                              
                                                                                
   Atomic configuration                                                         
    4 entries                                                                   
     n  l   j            E        occ.                                          
     1  0  0.50      -273.3789   2.0000                                         
     2  0  0.50       -13.7508   2.0000                                         
     2  1  0.50        -5.2854   2.0000                                         
     3  2  1.50        -5.4423   0.0000                                         
   Description                                                                  
     l       E           TYP  RCUT    TYP  RCUT                                 
     0    -13.7508458     23  1.200                                             
     0     -8.2022199     23  1.200                                             
     1     -5.2854383     23  1.500                                             
     1     34.0145650     23  1.500                                             
     2     -5.4423304      7  1.500                                             
  local pseudopotential read in
  partial core-charges read in
  partial kinetic energy density read in
  atomic valenz-charges read in
  non local Contribution for L=           0  read in
    real space projection operators read in
  non local Contribution for L=           0  read in
    real space projection operators read in
  non local Contribution for L=           1  read in
    real space projection operators read in
  non local Contribution for L=           1  read in
    real space projection operators read in
    PAW grid and wavefunctions read in
 
   number of l-projection  operators is LMAX  =           4
   number of lm-projection operators is LMMAX =           8
 
 POTCAR:    PAW_PBE H 15Jun2001                   
   VRHFIN =H: ultrasoft test                                                    
   LEXCH  = PE                                                                  
   EATOM  =    12.4884 eV,    0.9179 Ry                                         
                                                                                
   TITEL  = PAW_PBE H 15Jun2001                                                 
   LULTRA =        F    use ultrasoft PP ?                                      
   IUNSCR =        0    unscreen: 0-lin 1-nonlin 2-no                           
   RPACOR =    0.000    partial core radius                                     
   POMASS =    1.000; ZVAL   =    1.000    mass and valenz                      
   RCORE  =    1.100    outmost cutoff radius                                   
   RWIGS  =    0.700; RWIGS  =    0.370    wigner-seitz radius (au A)           
   ENMAX  =  250.000; ENMIN  =  200.000 eV                                      
   RCLOC  =    0.701    cutoff for local pot                                    
   LCOR   =        T    correct aug charges                                     
   LPAW   =        T    paw PP                                                  
   EAUG   =  400.000                                                            
   RMAX   =    1.123    core radius for proj-oper                               
   RAUG   =    1.200    factor for augmentation sphere                          
   RDEP   =    1.112    radius for radial grids                                 
   RDEPT  =    0.926    core radius for aug-charge                              
                                                                                
   Atomic configuration                                                         
    2 entries                                                                   
     n  l   j            E        occ.                                          
     1  0  0.50        -6.4927   1.0000                                         
     2  1  0.50        -3.4015   0.0000                                         
   Description                                                                  
     l       E           TYP  RCUT    TYP  RCUT                                 
     0     -6.4927494     23  1.100                                             
     0      6.8029130     23  1.100                                             
     1     -4.0817478     23  1.100                                             
  local pseudopotential read in
  atomic valenz-charges read in
  non local Contribution for L=           0  read in
    real space projection operators read in
  non local Contribution for L=           0  read in
    real space projection operators read in
  non local Contribution for L=           1  read in
    real space projection operators read in
    PAW grid and wavefunctions read in
 
   number of l-projection  operators is LMAX  =           3
   number of lm-projection operators is LMMAX =           5
 
 POTCAR:    PAW_PBE Ir 06Sep2000                  
   VRHFIN =Ir: s1d8                                                             
   LEXCH  = PE                                                                  
   EATOM  =   560.1833 eV,   41.1723 Ry                                         
                                                                                
   TITEL  = PAW_PBE Ir 06Sep2000                                                
   LULTRA =        F    use ultrasoft PP ?                                      
   IUNSCR =        1    unscreen: 0-lin 1-nonlin 2-no                           
   RPACOR =    2.250    partial core radius                                     
   POMASS =  192.220; ZVAL   =    9.000    mass and valenz                      
   RCORE  =    2.600    outmost cutoff radius                                   
   RWIGS  =    2.690; RWIGS  =    1.423    wigner-seitz radius (au A)           
   ENMAX  =  210.864; ENMIN  =  158.148 eV                                      
   RCLOC  =    1.857    cutoff for local pot                                    
   LCOR   =        T    correct aug charges                                     
   LPAW   =        T    paw PP                                                  
   EAUG   =  318.962                                                            
   DEXC   =    0.000                                                            
   RMAX   =    2.667    core radius for proj-oper                               
   RAUG   =    1.300    factor for augmentation sphere                          
   RDEP   =    2.748    radius for radial grids                                 
   RDEPT  =    2.300    core radius for aug-charge                              
                                                                                
   Atomic configuration                                                         
   16 entries                                                                   
     n  l   j            E        occ.                                          
     1  0  0.50    -76100.0449   2.0000                                         
     2  0  0.50    -13308.1683   2.0000                                         
     2  1  1.50    -11558.0021   6.0000                                         
     3  0  0.50     -3110.7274   2.0000                                         
     3  1  1.50     -2599.2109   6.0000                                         
     3  2  2.50     -2037.1515  10.0000                                         
     4  0  0.50      -661.6001   2.0000                                         
     4  1  1.50      -493.8981   6.0000                                         
     4  2  2.50      -288.1909  10.0000                                         
     4  3  3.50       -59.5718  14.0000                                         
     5  0  0.50       -95.3879   2.0000                                         
     5  1  1.50       -52.2747   6.0000                                         
     5  2  2.50        -5.4180   8.0000                                         
     6  0  0.50        -5.5479   1.0000                                         
     6  1  1.50        -6.8029   0.0000                                         
     5  3  2.50        -1.3606   0.0000                                         
   Description                                                                  
     l       E           TYP  RCUT    TYP  RCUT                                 
     2     -5.4179967     23  2.600                                             
     2     -6.7785793     23  2.600                                             
     0     -5.5478636     23  2.600                                             
     0      2.2542272     23  2.600                                             
     1     -2.7211652     23  2.600                                             
     1     20.4087390     23  2.600                                             
  local pseudopotential read in
  partial core-charges read in
  partial kinetic energy density read in
  atomic valenz-charges read in
  non local Contribution for L=           2  read in
    real space projection operators read in
  non local Contribution for L=           2  read in
    real space projection operators read in
  non local Contribution for L=           0  read in
    real space projection operators read in
  non local Contribution for L=           0  read in
    real space projection operators read in
  non local Contribution for L=           1  read in
    real space projection operators read in
  non local Contribution for L=           1  read in
    real space projection operators read in
    PAW grid and wavefunctions read in
 
   number of l-projection  operators is LMAX  =           6
   number of lm-projection operators is LMMAX =          18
 
 POTCAR:    PAW_PBE Pt 04Feb2005                  
   VRHFIN =Pt: s1d9                                                             
   LEXCH  = PE                                                                  
   EATOM  =   729.1176 eV,   53.5886 Ry                                         
                                                                                
   TITEL  = PAW_PBE Pt 04Feb2005                                                
   LULTRA =        F    use ultrasoft PP ?                                      
   IUNSCR =        1    unscreen: 0-lin 1-nonlin 2-no                           
   RPACOR =    2.330    partial core radius                                     
   POMASS =  195.080; ZVAL   =   10.000    mass and valenz                      
   RCORE  =    2.600    outmost cutoff radius                                   
   RWIGS  =    2.750; RWIGS  =    1.455    wigner-seitz radius (au A)           
   ENMAX  =  230.283; ENMIN  =  172.712 eV                                      
   ICORE  =        3    local potential                                         
   LCOR   =        T    correct aug charges                                     
   LPAW   =        T    paw PP                                                  
   EAUG   =  358.966                                                            
   DEXC   =    0.000                                                            
   RMAX   =    2.658    core radius for proj-oper                               
   RAUG   =    1.300    factor for augmentation sphere                          
   RDEP   =    2.761    radius for radial grids                                 
   RDEPT  =    2.203    core radius for aug-charge                              
                                                                                
   Atomic configuration                                                         
   16 entries                                                                   
     n  l   j            E        occ.                                          
     1  0  0.50    -78401.1885   2.0000                                         
     2  0  0.50    -13770.7750   2.0000                                         
     2  1  1.50    -11931.0468   6.0000                                         
     3  0  0.50     -3234.7234   2.0000                                         
     3  1  1.50     -2699.2216   6.0000                                         
     3  2  2.50     -2119.5714  10.0000                                         
     4  0  0.50      -695.1528   2.0000                                         
     4  1  1.50      -519.6034   6.0000                                         
     4  2  2.50      -306.6786  10.0000                                         
     4  3  3.50       -70.1041  14.0000                                         
     5  0  0.50      -101.7747   2.0000                                         
     5  1  1.50       -55.9873   6.0000                                         
     5  2  2.50        -6.1423   9.0000                                         
     6  0  0.50        -5.6573   1.0000                                         
     6  1  1.50        -6.8029   0.0000                                         
     5  3  2.50        -1.3606   0.0000                                         
   Description                                                                  
     l       E           TYP  RCUT    TYP  RCUT                                 
     2     -6.1423404     23  2.500                                             
     2     -7.5029230     23  2.500                                             
     0     -5.6573207     23  2.500                                             
     0      0.7416693     23  2.500                                             
     1     -2.7211652     23  2.600                                             
     1     20.4087390     23  2.600                                             
     3     -1.3605826     23  2.500                                             
  local pseudopotential read in
  partial core-charges read in
  partial kinetic energy density read in
  atomic valenz-charges read in
  non local Contribution for L=           2  read in
    real space projection operators read in
  non local Contribution for L=           2  read in
    real space projection operators read in
  non local Contribution for L=           0  read in
    real space projection operators read in
  non local Contribution for L=           0  read in
    real space projection operators read in
  non local Contribution for L=           1  read in
    real space projection operators read in
  non local Contribution for L=           1  read in
    real space projection operators read in
    PAW grid and wavefunctions read in
 
   number of l-projection  operators is LMAX  =           6
   number of lm-projection operators is LMMAX =          18
 
 Optimization of the real space projectors (new method)

 maximal supplied QI-value         = 15.12
 optimisation between [QCUT,QGAM] = [  9.52, 19.05] = [ 25.40,101.61] Ry 
 Optimized for a Real-space Cutoff    1.57 Angstroem

   l    n(q)    QCUT    max X(q) W(low)/X(q) W(high)/X(q)  e(spline) 
   2      8     9.524    60.898    0.38E-03    0.43E-04    0.84E-07
   2      8     9.524    58.894    0.38E-03    0.47E-04    0.88E-07
   0      9     9.524   109.617    0.60E-04    0.64E-04    0.80E-07
   0      9     9.524    75.026    0.59E-04    0.62E-04    0.78E-07
   1      8     9.524    16.344    0.99E-04    0.18E-03    0.87E-07
   1      8     9.524    10.160    0.78E-04    0.15E-03    0.74E-07
 Optimization of the real space projectors (new method)

 maximal supplied QI-value         = 25.13
 optimisation between [QCUT,QGAM] = [  9.55, 19.10] = [ 25.54,102.17] Ry 
 Optimized for a Real-space Cutoff    1.39 Angstroem

   l    n(q)    QCUT    max X(q) W(low)/X(q) W(high)/X(q)  e(spline) 
   0      8     9.551   115.676    0.39E-03    0.54E-03    0.29E-06
   0      8     9.551    87.132    0.39E-03    0.54E-03    0.28E-06
   1      7     9.551     4.429    0.35E-03    0.51E-04    0.29E-06
   1      7     9.551     2.733    0.22E-03    0.42E-04    0.31E-06
 Optimization of the real space projectors (new method)

 maximal supplied QI-value         = 34.20
 optimisation between [QCUT,QGAM] = [  9.58, 19.15] = [ 25.68,102.74] Ry 
 Optimized for a Real-space Cutoff    1.31 Angstroem

   l    n(q)    QCUT    max X(q) W(low)/X(q) W(high)/X(q)  e(spline) 
   0      7     9.577    19.460    0.33E-03    0.12E-03    0.35E-06
   0      7     9.577    12.209    0.33E-03    0.11E-03    0.33E-06
   1      7     9.577     4.655    0.39E-03    0.14E-02    0.33E-06
 Optimization of the real space projectors (new method)

 maximal supplied QI-value         = 14.36
 optimisation between [QCUT,QGAM] = [  9.48, 19.10] = [ 25.16,102.17] Ry 
 Optimized for a Real-space Cutoff    1.57 Angstroem

   l    n(q)    QCUT    max X(q) W(low)/X(q) W(high)/X(q)  e(spline) 
   2      8     9.479   134.116    0.18E-03    0.75E-03    0.26E-06
   2      8     9.479   130.192    0.18E-03    0.75E-03    0.27E-06
   0      9     9.479    60.310    0.39E-03    0.24E-03    0.63E-07
   0      9     9.479    39.218    0.36E-03    0.22E-03    0.59E-07
   1      8     9.479    18.439    0.20E-03    0.15E-03    0.16E-06
   1      8     9.479    12.760    0.16E-03    0.11E-03    0.13E-06
 Optimization of the real space projectors (new method)

 maximal supplied QI-value         = 14.36
 optimisation between [QCUT,QGAM] = [  9.48, 19.10] = [ 25.16,102.17] Ry 
 Optimized for a Real-space Cutoff    1.57 Angstroem

   l    n(q)    QCUT    max X(q) W(low)/X(q) W(high)/X(q)  e(spline) 
   2      8     9.479    66.195    0.35E-03    0.53E-04    0.87E-07
   2      8     9.479    64.643    0.35E-03    0.57E-04    0.91E-07
   0      9     9.479    95.520    0.50E-04    0.62E-04    0.81E-07
   0      9     9.479    63.403    0.49E-04    0.60E-04    0.78E-07
   1      8     9.479    19.961    0.10E-03    0.87E-04    0.11E-06
   1      8     9.479    13.289    0.88E-04    0.71E-04    0.97E-07
  PAW_PBE Au 04Oct2007                  :
 energy of atom  1       EATOM= -926.0867
 kinetic energy error for atom=    0.0152 (will be added to EATOM!!)
  PAW_PBE C 08Apr2002                   :
 energy of atom  2       EATOM= -147.1560
 kinetic energy error for atom=    0.0854 (will be added to EATOM!!)
  PAW_PBE H 15Jun2001                   :
 energy of atom  3       EATOM=  -12.4884
 kinetic energy error for atom=    0.0203 (will be added to EATOM!!)
  PAW_PBE Ir 06Sep2000                  :
 energy of atom  4       EATOM= -560.1833
 kinetic energy error for atom=    0.0056 (will be added to EATOM!!)
  PAW_PBE Pt 04Feb2005                  :
 energy of atom  5       EATOM= -729.1176
 kinetic energy error for atom=    0.0144 (will be added to EATOM!!)
 
 
 POSCAR: Au  C  H Ir Pt                          
  positions in cartesian coordinates
  No initial velocities read in
 exchange correlation table for  LEXCH =        8
   RHO(1)=    0.500       N(1)  =     2000
   RHO(2)=  100.500       N(2)  =     4000
 


--------------------------------------------------------------------------------------------------------


 ion  position               nearest neighbor table
   1  0.339  0.833  0.540-  20 2.78  21 2.78  13 2.78  13 2.78  21 2.78  20 2.78  14 2.78  17 2.80
                            15 2.80  11 2.80   8 2.82  10 2.82
   2  0.003  0.044  0.713-   6 1.10   4 1.10   5 1.10   3 1.11
   3  0.021  0.155  0.684-   2 1.11
   4  0.868  0.204  0.736-   2 1.10
   5  0.908  0.919  0.703-   2 1.10
   6  0.212  0.909  0.726-   2 1.10
   7  0.501  0.001  0.391-  18 2.78  19 2.78  12 2.78  12 2.78  19 2.78  18 2.78  17 2.81  16 2.82
                            14 2.83
   8  0.507  0.498  0.616-   9 2.77  11 2.78  10 2.78  10 2.78  11 2.78   9 2.78  20 2.82  13 2.82
                             1 2.82
   9  0.008  0.499  0.616-   8 2.77  11 2.77  10 2.78  10 2.78  11 2.78   8 2.78  20 2.81  21 2.82
                            13 2.83
  10  0.508  0.998  0.616-  11 2.78   9 2.78   8 2.78   8 2.78   9 2.78  11 2.78  21 2.82  20 2.82
                             1 2.82
  11  0.008  0.998  0.615-   9 2.77   8 2.78  10 2.78  10 2.78   8 2.78   9 2.78   1 2.80  21 2.81
                            13 2.82
  12  0.001  0.002  0.391-  19 2.78   7 2.78  18 2.78  18 2.78   7 2.78  19 2.78  16 2.82  15 2.82
                            17 2.83
  13  0.839  0.333  0.540-   1 2.78  21 2.78  20 2.78  20 2.78  21 2.78   1 2.78  17 2.79  14 2.79
                            16 2.80  11 2.82   8 2.82   9 2.83
  14  0.670  0.668  0.466-  16 2.78  17 2.78  15 2.78  15 2.78  17 2.78  16 2.78   1 2.78  13 2.79
                            21 2.79  19 2.82   7 2.83  18 2.83
  15  0.170  0.667  0.466-  16 2.78  14 2.78  17 2.78  17 2.78  14 2.78  16 2.78  21 2.79   1 2.80
                            20 2.80  18 2.81  12 2.82  19 2.82
  16  0.670  0.168  0.466-  15 2.78  14 2.78  17 2.78  17 2.78  14 2.78  15 2.78  20 2.79  13 2.80
                            21 2.80  12 2.82  18 2.82   7 2.82
  17  0.170  0.167  0.466-  14 2.78  15 2.78  16 2.78  16 2.78  15 2.78  14 2.78  13 2.79   1 2.80
                            20 2.80   7 2.81  19 2.82  12 2.83
  18  0.502  0.502  0.391-  19 2.78   7 2.78  12 2.78  12 2.78   7 2.78  19 2.78  15 2.81  16 2.82
                            14 2.83
  19  0.001  0.502  0.391-  18 2.78   7 2.78  12 2.78  12 2.78   7 2.78  18 2.78  14 2.82  17 2.82
                            15 2.82
  20  0.339  0.333  0.541-   1 2.78  21 2.78  13 2.78  13 2.78  21 2.78   1 2.78  16 2.79  17 2.80
                            15 2.80   9 2.81   8 2.82  10 2.82
  21  0.839  0.833  0.540-   1 2.78  20 2.78  13 2.78  13 2.78  20 2.78   1 2.78  15 2.79  14 2.79
                            16 2.80  11 2.81  10 2.82   9 2.82
 
  LATTYP: Found a hexagonal cell.
 ALAT       =     5.5578593001
 C/A-ratio  =     5.5429542221
  
  Lattice vectors:
  
 A1 = (   2.7789296501,  -4.8132473446,   0.0000000000)
 A2 = (  -5.5578593001,   0.0000000000,   0.0000000000)
 A3 = (   0.0000000000,   0.0000000000, -30.8069596737)


Analysis of symmetry for initial positions (statically):
=====================================================================
 Subroutine PRICEL returns:
 Original cell was already a primitive cell.
 

 Routine SETGRP: Setting up the symmetry group for a 
 hexagonal supercell.


 Subroutine GETGRP returns: Found  1 space group operations
 (whereof  1 operations were pure point group operations)
 out of a pool of 24 trial point group operations.


The static configuration has the point symmetry C_1 .


Analysis of symmetry for dynamics (positions and initial velocities):
=====================================================================
 Subroutine PRICEL returns:
 Original cell was already a primitive cell.
 

 Routine SETGRP: Setting up the symmetry group for a 
 hexagonal supercell.


 Subroutine GETGRP returns: Found  1 space group operations
 (whereof  1 operations were pure point group operations)
 out of a pool of 24 trial point group operations.


The dynamic configuration has the point symmetry C_1 .


 Subroutine INISYM returns: Found  1 space group operations
 (whereof  1 operations are pure point group operations),
 and found     1 'primitive' translations

 
 
 KPOINTS: 0.4.Ir1.Au11                            

Automatic generation of k-mesh.
Space group operators:
 irot       det(A)        alpha          n_x          n_y          n_z        tau_x        tau_y        tau_z
    1     1.000000     0.000001     1.000000     0.000000     0.000000     0.000000     0.000000     0.000000
 
 Subroutine IBZKPT returns following result:
 ===========================================
 
 Found     96 irreducible k-points:
 
 Following reciprocal coordinates:
            Coordinates               Weight
  0.062500  0.062500  0.000000     16.000000
  0.000000  0.062500  0.000000     16.000000
 -0.062500  0.000000  0.000000     16.000000
  0.187500  0.062500  0.000000     16.000000
  0.125000  0.187500  0.000000     16.000000
 -0.062500  0.125000  0.000000     16.000000
  0.125000 -0.062500  0.000000     16.000000
 -0.062500 -0.187500  0.000000     16.000000
 -0.187500 -0.125000  0.000000     16.000000
  0.312500  0.062500  0.000000     16.000000
  0.250000  0.312500  0.000000     16.000000
 -0.062500  0.250000  0.000000     16.000000
  0.250000 -0.062500  0.000000     16.000000
 -0.062500 -0.312500  0.000000     16.000000
 -0.312500 -0.250000  0.000000     16.000000
  0.437500  0.062500  0.000000     16.000000
  0.375000  0.437500  0.000000     16.000000
 -0.062500  0.375000  0.000000     16.000000
  0.375000 -0.062500  0.000000     16.000000
 -0.062500 -0.437500  0.000000     16.000000
 -0.437500 -0.375000  0.000000     16.000000
 -0.437500  0.062500  0.000000     16.000000
  0.500000 -0.437500  0.000000     16.000000
 -0.062500  0.500000  0.000000     16.000000
  0.500000 -0.062500  0.000000     16.000000
 -0.062500  0.437500  0.000000     16.000000
  0.437500  0.500000  0.000000     16.000000
 -0.312500  0.062500  0.000000     16.000000
 -0.375000 -0.312500  0.000000     16.000000
 -0.062500 -0.375000  0.000000     16.000000
 -0.375000 -0.062500  0.000000     16.000000
 -0.062500  0.312500  0.000000     16.000000
  0.312500  0.375000  0.000000     16.000000
 -0.187500  0.062500  0.000000     16.000000
 -0.250000 -0.187500  0.000000     16.000000
 -0.062500 -0.250000  0.000000     16.000000
 -0.250000 -0.062500  0.000000     16.000000
 -0.062500  0.187500  0.000000     16.000000
  0.187500  0.250000  0.000000     16.000000
 -0.062500  0.062500  0.000000     16.000000
 -0.125000 -0.062500  0.000000     16.000000
 -0.062500 -0.125000  0.000000     16.000000
  0.187500  0.187500  0.000000     16.000000
  0.000000  0.187500  0.000000     16.000000
 -0.187500  0.000000  0.000000     16.000000
  0.312500  0.187500  0.000000     16.000000
  0.125000  0.312500  0.000000     16.000000
 -0.187500  0.125000  0.000000     16.000000
  0.125000 -0.187500  0.000000     16.000000
 -0.187500 -0.312500  0.000000     16.000000
 -0.312500 -0.125000  0.000000     16.000000
  0.437500  0.187500  0.000000     16.000000
  0.250000  0.437500  0.000000     16.000000
 -0.187500  0.250000  0.000000     16.000000
  0.250000 -0.187500  0.000000     16.000000
 -0.187500 -0.437500  0.000000     16.000000
 -0.437500 -0.250000  0.000000     16.000000
 -0.437500  0.187500  0.000000     16.000000
  0.375000 -0.437500  0.000000     16.000000
 -0.187500  0.375000  0.000000     16.000000
  0.375000 -0.187500  0.000000     16.000000
 -0.187500  0.437500  0.000000     16.000000
  0.437500 -0.375000  0.000000     16.000000
 -0.312500  0.187500  0.000000     16.000000
  0.500000 -0.312500  0.000000     16.000000
 -0.187500  0.500000  0.000000     16.000000
  0.500000 -0.187500  0.000000     16.000000
 -0.187500  0.312500  0.000000     16.000000
  0.312500  0.500000  0.000000     16.000000
 -0.187500  0.187500  0.000000     16.000000
 -0.375000 -0.187500  0.000000     16.000000
 -0.187500 -0.375000  0.000000     16.000000
  0.312500  0.312500  0.000000     16.000000
  0.000000  0.312500  0.000000     16.000000
 -0.312500  0.000000  0.000000     16.000000
  0.437500  0.312500  0.000000     16.000000
  0.125000  0.437500  0.000000     16.000000
 -0.312500  0.125000  0.000000     16.000000
  0.125000 -0.312500  0.000000     16.000000
 -0.312500 -0.437500  0.000000     16.000000
 -0.437500 -0.125000  0.000000     16.000000
 -0.437500  0.312500  0.000000     16.000000
  0.250000 -0.437500  0.000000     16.000000
 -0.312500  0.250000  0.000000     16.000000
  0.250000 -0.312500  0.000000     16.000000
 -0.312500  0.437500  0.000000     16.000000
  0.437500 -0.250000  0.000000     16.000000
 -0.312500  0.312500  0.000000     16.000000
  0.375000 -0.312500  0.000000     16.000000
 -0.312500  0.375000  0.000000     16.000000
  0.437500  0.437500  0.000000     16.000000
  0.000000  0.437500  0.000000     16.000000
 -0.437500 -0.000000  0.000000     16.000000
 -0.437500  0.437500  0.000000     16.000000
  0.125000 -0.437500  0.000000     16.000000
 -0.437500  0.125000  0.000000     16.000000
 
 Following cartesian coordinates:
            Coordinates               Weight
  0.011245  0.006492  0.000000     16.000000
  0.000000  0.012985  0.000000     16.000000
 -0.011245  0.006492  0.000000     16.000000
  0.033736 -0.006492  0.000000     16.000000
  0.022491  0.025970  0.000000     16.000000
 -0.011245  0.032462  0.000000     16.000000
  0.022491 -0.025970  0.000000     16.000000
 -0.011245 -0.032462  0.000000     16.000000
 -0.033736 -0.006492  0.000000     16.000000
  0.056227 -0.019477  0.000000     16.000000
  0.044981  0.038955  0.000000     16.000000
 -0.011245  0.058432  0.000000     16.000000
  0.044981 -0.038955  0.000000     16.000000
 -0.011245 -0.058432  0.000000     16.000000
 -0.056227 -0.019477  0.000000     16.000000
  0.078717 -0.032462  0.000000     16.000000
  0.067472  0.051940  0.000000     16.000000
 -0.011245  0.084402  0.000000     16.000000
  0.067472 -0.051940  0.000000     16.000000
 -0.011245 -0.084402  0.000000     16.000000
 -0.078717 -0.032462  0.000000     16.000000
 -0.078717  0.058432  0.000000     16.000000
  0.089963 -0.142835  0.000000     16.000000
 -0.011245  0.110372  0.000000     16.000000
  0.089963 -0.064925  0.000000     16.000000
 -0.011245  0.097387  0.000000     16.000000
  0.078717  0.058432  0.000000     16.000000
 -0.056227  0.045447  0.000000     16.000000
 -0.067472 -0.025970  0.000000     16.000000
 -0.011245 -0.071417  0.000000     16.000000
 -0.067472  0.025970  0.000000     16.000000
 -0.011245  0.071417  0.000000     16.000000
  0.056227  0.045447  0.000000     16.000000
 -0.033736  0.032462  0.000000     16.000000
 -0.044981 -0.012985  0.000000     16.000000
 -0.011245 -0.045447  0.000000     16.000000
 -0.044981  0.012985  0.000000     16.000000
 -0.011245  0.045447  0.000000     16.000000
  0.033736  0.032462  0.000000     16.000000
 -0.011245  0.019477  0.000000     16.000000
 -0.022491  0.000000  0.000000     16.000000
 -0.011245 -0.019477  0.000000     16.000000
  0.033736  0.019477  0.000000     16.000000
  0.000000  0.038955  0.000000     16.000000
 -0.033736  0.019477  0.000000     16.000000
  0.056227  0.006492  0.000000     16.000000
  0.022491  0.051940  0.000000     16.000000
 -0.033736  0.045447  0.000000     16.000000
  0.022491 -0.051940  0.000000     16.000000
 -0.033736 -0.045447  0.000000     16.000000
 -0.056227  0.006492  0.000000     16.000000
  0.078717 -0.006492  0.000000     16.000000
  0.044981  0.064925  0.000000     16.000000
 -0.033736  0.071417  0.000000     16.000000
  0.044981 -0.064925  0.000000     16.000000
 -0.033736 -0.071417  0.000000     16.000000
 -0.078717 -0.006492  0.000000     16.000000
 -0.078717  0.084402  0.000000     16.000000
  0.067472 -0.129850  0.000000     16.000000
 -0.033736  0.097387  0.000000     16.000000
  0.067472 -0.077910  0.000000     16.000000
 -0.033736  0.110372  0.000000     16.000000
  0.078717 -0.123357  0.000000     16.000000
 -0.056227  0.071417  0.000000     16.000000
  0.089963 -0.116865  0.000000     16.000000
 -0.033736  0.123357  0.000000     16.000000
  0.089963 -0.090895  0.000000     16.000000
 -0.033736  0.084402  0.000000     16.000000
  0.056227  0.071417  0.000000     16.000000
 -0.033736  0.058432  0.000000     16.000000
 -0.067472  0.000000  0.000000     16.000000
 -0.033736 -0.058432  0.000000     16.000000
  0.056227  0.032462  0.000000     16.000000
  0.000000  0.064925  0.000000     16.000000
 -0.056227  0.032462  0.000000     16.000000
  0.078717  0.019477  0.000000     16.000000
  0.022491  0.077910  0.000000     16.000000
 -0.056227  0.058432  0.000000     16.000000
  0.022491 -0.077910  0.000000     16.000000
 -0.056227 -0.058432  0.000000     16.000000
 -0.078717  0.019477  0.000000     16.000000
 -0.078717  0.110372  0.000000     16.000000
  0.044981 -0.116865  0.000000     16.000000
 -0.056227  0.084402  0.000000     16.000000
  0.044981 -0.090895  0.000000     16.000000
 -0.056227  0.123357  0.000000     16.000000
  0.078717 -0.097387  0.000000     16.000000
 -0.056227  0.097387  0.000000     16.000000
  0.067472 -0.103880  0.000000     16.000000
 -0.056227  0.110372  0.000000     16.000000
  0.078717  0.045447  0.000000     16.000000
  0.000000  0.090895  0.000000     16.000000
 -0.078717  0.045447  0.000000     16.000000
 -0.078717  0.136342  0.000000     16.000000
  0.022491 -0.103880  0.000000     16.000000
 -0.078717  0.071417  0.000000     16.000000
 


--------------------------------------------------------------------------------------------------------




 Dimension of arrays:
   k-points           NKPTS =     96   k-points in BZ     NKDIM =     96   number of bands    NBANDS=    100
   number of dos      NEDOS =    301   number of ions     NIONS =     21
   non local maximal  LDIM  =      6   non local SUM 2l+1 LMDIM =     18
   total plane-waves  NPLWV = 112896
   max r-space proj   IRMAX =   2252   max aug-charges    IRDMAX=  10104
   dimension x,y,z NGX =    28 NGY =   28 NGZ =  144
   dimension x,y,z NGXF=    56 NGYF=   56 NGZF=  288
   support grid    NGXF=    56 NGYF=   56 NGZF=  288
   ions per type =               1   1   4   1  14
   NGX,Y,Z   is equivalent  to a cutoff of   8.38,  8.38,  7.77 a.u.
   NGXF,Y,Z  is equivalent  to a cutoff of  16.75, 16.75, 15.54 a.u.

 SYSTEM =  0.4.Ir1.Au11                            
 POSCAR =  Au  C  H Ir Pt                          

 Startparameter for this run:
   NWRITE =      2    write-flag & timer
   PREC   = normal    normal or accurate (medium, high low for compatibility)
   ISTART =      0    job   : 0-new  1-cont  2-samecut
   ICHARG =      2    charge: 1-file 2-atom 10-const
   ISPIN  =      1    spin polarized calculation?
   LNONCOLLINEAR =      F non collinear calculations
   LSORBIT =      F    spin-orbit coupling
   INIWAV =      1    electr: 0-lowe 1-rand  2-diag
   LASPH  =      F    aspherical Exc in radial PAW
   METAGGA=      F    non-selfconsistent MetaGGA calc.

 Electronic Relaxation 1
   ENCUT  =  350.0 eV  25.72 Ry    5.07 a.u.   8.48  8.48 46.99*2*pi/ulx,y,z
   ENINI  =  350.0     initial cutoff
   ENAUG  =  644.9 eV  augmentation charge cutoff
   NELM   =   1000;   NELMIN=  5; NELMDL= -5     # of ELM steps 
   EDIFF  = 0.1E-04   stopping-criterion for ELM
   LREAL  =      T    real-space projection
   NLSPLINE    = F    spline interpolate recip. space projectors
   LCOMPAT=      F    compatible to vasp.4.4
   GGA_COMPAT  = T    GGA compatible to vasp.4.4-vasp.4.6
   LMAXPAW     = -100 max onsite density
   LMAXMIX     =    2 max onsite mixed and CHGCAR
   VOSKOWN=      0    Vosko Wilk Nusair interpolation
   ROPT   =   -0.00050  -0.00050  -0.00050  -0.00050
   ROPT   =   -0.00050
 Ionic relaxation
   EDIFFG = 0.1E-03   stopping-criterion for IOM
   NSW    =      0    number of steps for IOM
   NBLOCK =      1;   KBLOCK =      1    inner block; outer block 
   IBRION =     -1    ionic relax: 0-MD 1-quasi-New 2-CG
   NFREE  =      0    steps in history (QN), initial steepest desc. (CG)
   ISIF   =      2    stress and relaxation
   IWAVPR =     10    prediction:  0-non 1-charg 2-wave 3-comb
   ISYM   =      2    0-nonsym 1-usesym 2-fastsym
   LCORR  =      T    Harris-Foulkes like correction to forces

   POTIM  = 0.5000    time-step for ionic-motion
   TEIN   =    0.0    initial temperature
   TEBEG  =    0.0;   TEEND  =   0.0 temperature during run
   SMASS  =  -3.00    Nose mass-parameter (am)
   estimated Nose-frequenzy (Omega)   =  0.10E-29 period in steps =****** mass=  -0.706E-27a.u.
   SCALEE = 1.0000    scale energy and forces
   NPACO  =    256;   APACO  = 16.0  distance and # of slots for P.C.
   PSTRESS=    0.0 pullay stress

  Mass of Ions in am
   POMASS = 196.97 12.01  1.00192.22195.08
  Ionic Valenz
   ZVAL   =  11.00  4.00  1.00  9.00 10.00
  Atomic Wigner-Seitz radii
   RWIGS  =  -1.00 -1.00 -1.00 -1.00 -1.00
  virtual crystal weights 
   VCA    =   1.00  1.00  1.00  1.00  1.00
   NELECT =     168.0000    total number of electrons
   NUPDOWN=      -1.0000    fix difference up-down

 DOS related values:
   EMIN   =  10.00;   EMAX   =-10.00  energy-range for DOS
   EFERMI =   0.00
   ISMEAR =     1;   SIGMA  =   0.20  broadening in eV -4-tet -1-fermi 0-gaus

 Electronic relaxation 2 (details)
   IALGO  =     38    algorithm
   LDIAG  =      T    sub-space diagonalisation (order eigenvalues)
   LSUBROT=      F    optimize rotation matrix (better conditioning)
   TURBO    =      0    0=normal 1=particle mesh
   IRESTART =      0    0=no restart 2=restart with 2 vectors
   NREBOOT  =      0    no. of reboots
   NMIN     =      0    reboot dimension
   EREF     =   0.00    reference energy to select bands
   IMIX   =      4    mixing-type and parameters
     AMIX     =   0.40;   BMIX     =  1.00
     AMIX_MAG =   1.60;   BMIX_MAG =  1.00
     AMIN     =   0.10
     WC   =   100.;   INIMIX=   1;  MIXPRE=   1;  MAXMIX= -45

 Intra band minimization:
   WEIMIN = 0.0000     energy-eigenvalue tresh-hold
   EBREAK =  0.25E-07  absolut break condition
   DEPER  =   0.30     relativ break condition  

   TIME   =   0.40     timestep for ELM

  volume/ion in A,a.u.               =      39.24       264.83
  Fermi-wavevector in a.u.,A,eV,Ry     =   0.963488  1.820729 12.630418  0.928310
  Thomas-Fermi vector in A             =   2.093038
 
 Write flags
   LWAVE        =      F    write WAVECAR
   LDOWNSAMPLE  =      F    k-point downsampling of WAVECAR
   LCHARG       =      F    write CHGCAR
   LVTOT        =      F    write LOCPOT, total local potential
   LVHAR        =      F    write LOCPOT, Hartree potential only
   LELF         =      F    write electronic localiz. function (ELF)
   LORBIT       =      0    0 simple, 1 ext, 2 COOP (PROOUT), +10 PAW based schemes


 Dipole corrections
   LMONO  =      F    monopole corrections only (constant potential shift)
   LDIPOL =      F    correct potential (dipole corrections)
   IDIPOL =      3    1-x, 2-y, 3-z, 4-all directions 
   EPSILON=  1.0000000 bulk dielectric constant

 Exchange correlation treatment:
   GGA     =    --    GGA type
   LEXCH   =     8    internal setting for exchange type
   VOSKOWN=      0    Vosko Wilk Nusair interpolation
   LHFCALC =     F    Hartree Fock is set to
   LHFONE  =     F    Hartree Fock one center treatment
   AEXX    =    0.0000 exact exchange contribution

 Linear response parameters
   LEPSILON=     F    determine dielectric tensor
   LRPA    =     F    only Hartree local field effects (RPA)
   LNABLA  =     F    use nabla operator in PAW spheres
   LVEL    =     F    velocity operator in full k-point grid
   LINTERFAST=   F  fast interpolation
   KINTER  =     0    interpolate to denser k-point grid
   CSHIFT  =0.1000    complex shift for real part using Kramers Kronig
   OMEGAMAX=  -1.0    maximum frequency
   DEG_THRESHOLD= 0.2000000E-02 threshold for treating states as degnerate
   RTIME   =   -0.100 relaxation time in fs
  (WPLASMAI=    0.000 imaginary part of plasma frequency in eV, 0.658/RTIME)
   DFIELD  = 0.0000000 0.0000000 0.0000000 field for delta impulse in time
 
 Orbital magnetization related:
   ORBITALMAG=     F  switch on orbital magnetization
   LCHIMAG   =     F  perturbation theory with respect to B field
   DQ        =  0.001000  dq finite difference perturbation B field
   LLRAUG    =     F  two centre corrections for induced B field



--------------------------------------------------------------------------------------------------------


 Static calculation
 charge density and potential will be updated during run
 non-spin polarized calculation
 Variant of blocked Davidson
 Davidson routine will perform the subspace rotation
 perform sub-space diagonalisation
    after iterative eigenvector-optimisation
 modified Broyden-mixing scheme, WC =      100.0
 initial mixing is a Kerker type mixing with AMIX =  0.4000 and BMIX =      1.0000
 Hartree-type preconditioning will be used
 using additional bands           16
 real space projection scheme for non local part
 use partial core corrections
 calculate Harris-corrections to forces 
   (improved forces if not selfconsistent)
 use gradient corrections 
 use of overlap-Matrix (Vanderbilt PP)
 Methfessel and Paxton  Order N= 1 SIGMA  =   0.20


--------------------------------------------------------------------------------------------------------


  energy-cutoff  :      350.00
  volume of cell :      824.13
      direct lattice vectors                 reciprocal lattice vectors
     5.557859300  0.000000000  0.000000000     0.179925390 -0.103879972  0.000000000
     2.778929650  4.813247345  0.000000000     0.000000000  0.207759944  0.000000000
     0.000000000  0.000000000 30.806959674     0.000000000  0.000000000  0.032460198

  length of vectors
     5.557859300  5.557859300 30.806959674     0.207759944  0.207759944  0.032460198


 
 k-points in units of 2pi/SCALE and weight: 0.4.Ir1.Au11                            
   0.01124534  0.00649250  0.00000000       0.010
   0.00000000  0.01298500  0.00000000       0.010
  -0.01124534  0.00649250  0.00000000       0.010
   0.03373601 -0.00649250  0.00000000       0.010
   0.02249067  0.02596999  0.00000000       0.010
  -0.01124534  0.03246249  0.00000000       0.010
   0.02249067 -0.02596999  0.00000000       0.010
  -0.01124534 -0.03246249  0.00000000       0.010
  -0.03373601 -0.00649250  0.00000000       0.010
   0.05622668 -0.01947749  0.00000000       0.010
   0.04498135  0.03895499  0.00000000       0.010
  -0.01124534  0.05843248  0.00000000       0.010
   0.04498135 -0.03895499  0.00000000       0.010
  -0.01124534 -0.05843248  0.00000000       0.010
  -0.05622668 -0.01947749  0.00000000       0.010
   0.07871736 -0.03246249  0.00000000       0.010
   0.06747202  0.05193999  0.00000000       0.010
  -0.01124534  0.08440248  0.00000000       0.010
   0.06747202 -0.05193999  0.00000000       0.010
  -0.01124534 -0.08440248  0.00000000       0.010
  -0.07871736 -0.03246249  0.00000000       0.010
  -0.07871736  0.05843248  0.00000000       0.010
   0.08996269 -0.14283496  0.00000000       0.010
  -0.01124534  0.11037247  0.00000000       0.010
   0.08996269 -0.06492498  0.00000000       0.010
  -0.01124534  0.09738747  0.00000000       0.010
   0.07871736  0.05843248  0.00000000       0.010
  -0.05622668  0.04544749  0.00000000       0.010
  -0.06747202 -0.02596999  0.00000000       0.010
  -0.01124534 -0.07141748  0.00000000       0.010
  -0.06747202  0.02596999  0.00000000       0.010
  -0.01124534  0.07141748  0.00000000       0.010
   0.05622668  0.04544749  0.00000000       0.010
  -0.03373601  0.03246249  0.00000000       0.010
  -0.04498135 -0.01298500  0.00000000       0.010
  -0.01124534 -0.04544749  0.00000000       0.010
  -0.04498135  0.01298500  0.00000000       0.010
  -0.01124534  0.04544749  0.00000000       0.010
   0.03373601  0.03246249  0.00000000       0.010
  -0.01124534  0.01947749  0.00000000       0.010
  -0.02249067  0.00000000  0.00000000       0.010
  -0.01124534 -0.01947749  0.00000000       0.010
   0.03373601  0.01947749  0.00000000       0.010
   0.00000000  0.03895499  0.00000000       0.010
  -0.03373601  0.01947749  0.00000000       0.010
   0.05622668  0.00649250  0.00000000       0.010
   0.02249067  0.05193999  0.00000000       0.010
  -0.03373601  0.04544749  0.00000000       0.010
   0.02249067 -0.05193999  0.00000000       0.010
  -0.03373601 -0.04544749  0.00000000       0.010
  -0.05622668  0.00649250  0.00000000       0.010
   0.07871736 -0.00649250  0.00000000       0.010
   0.04498135  0.06492498  0.00000000       0.010
  -0.03373601  0.07141748  0.00000000       0.010
   0.04498135 -0.06492498  0.00000000       0.010
  -0.03373601 -0.07141748  0.00000000       0.010
  -0.07871736 -0.00649250  0.00000000       0.010
  -0.07871736  0.08440248  0.00000000       0.010
   0.06747202 -0.12984997  0.00000000       0.010
  -0.03373601  0.09738747  0.00000000       0.010
   0.06747202 -0.07790998  0.00000000       0.010
  -0.03373601  0.11037247  0.00000000       0.010
   0.07871736 -0.12335747  0.00000000       0.010
  -0.05622668  0.07141748  0.00000000       0.010
   0.08996269 -0.11686497  0.00000000       0.010
  -0.03373601  0.12335747  0.00000000       0.010
   0.08996269 -0.09089498  0.00000000       0.010
  -0.03373601  0.08440248  0.00000000       0.010
   0.05622668  0.07141748  0.00000000       0.010
  -0.03373601  0.05843248  0.00000000       0.010
  -0.06747202  0.00000000  0.00000000       0.010
  -0.03373601 -0.05843248  0.00000000       0.010
   0.05622668  0.03246249  0.00000000       0.010
   0.00000000  0.06492498  0.00000000       0.010
  -0.05622668  0.03246249  0.00000000       0.010
   0.07871736  0.01947749  0.00000000       0.010
   0.02249067  0.07790998  0.00000000       0.010
  -0.05622668  0.05843248  0.00000000       0.010
   0.02249067 -0.07790998  0.00000000       0.010
  -0.05622668 -0.05843248  0.00000000       0.010
  -0.07871736  0.01947749  0.00000000       0.010
  -0.07871736  0.11037247  0.00000000       0.010
   0.04498135 -0.11686497  0.00000000       0.010
  -0.05622668  0.08440248  0.00000000       0.010
   0.04498135 -0.09089498  0.00000000       0.010
  -0.05622668  0.12335747  0.00000000       0.010
   0.07871736 -0.09738747  0.00000000       0.010
  -0.05622668  0.09738747  0.00000000       0.010
   0.06747202 -0.10387997  0.00000000       0.010
  -0.05622668  0.11037247  0.00000000       0.010
   0.07871736  0.04544749  0.00000000       0.010
   0.00000000  0.09089498  0.00000000       0.010
  -0.07871736  0.04544749  0.00000000       0.010
  -0.07871736  0.13634246  0.00000000       0.010
   0.02249067 -0.10387997  0.00000000       0.010
  -0.07871736  0.07141748  0.00000000       0.010
 
 k-points in reciprocal lattice and weights: 0.4.Ir1.Au11                            
   0.06250000  0.06250000  0.00000000       0.010
   0.00000000  0.06250000  0.00000000       0.010
  -0.06250000  0.00000000  0.00000000       0.010
   0.18750000  0.06250000  0.00000000       0.010
   0.12500000  0.18750000  0.00000000       0.010
  -0.06250000  0.12500000  0.00000000       0.010
   0.12500000 -0.06250000  0.00000000       0.010
  -0.06250000 -0.18750000  0.00000000       0.010
  -0.18750000 -0.12500000  0.00000000       0.010
   0.31250000  0.06250000  0.00000000       0.010
   0.25000000  0.31250000  0.00000000       0.010
  -0.06250000  0.25000000  0.00000000       0.010
   0.25000000 -0.06250000  0.00000000       0.010
  -0.06250000 -0.31250000  0.00000000       0.010
  -0.31250000 -0.25000000  0.00000000       0.010
   0.43750000  0.06250000  0.00000000       0.010
   0.37500000  0.43750000  0.00000000       0.010
  -0.06250000  0.37500000  0.00000000       0.010
   0.37500000 -0.06250000  0.00000000       0.010
  -0.06250000 -0.43750000  0.00000000       0.010
  -0.43750000 -0.37500000  0.00000000       0.010
  -0.43750000  0.06250000  0.00000000       0.010
   0.50000000 -0.43750000  0.00000000       0.010
  -0.06250000  0.50000000  0.00000000       0.010
   0.50000000 -0.06250000  0.00000000       0.010
  -0.06250000  0.43750000  0.00000000       0.010
   0.43750000  0.50000000  0.00000000       0.010
  -0.31250000  0.06250000  0.00000000       0.010
  -0.37500000 -0.31250000  0.00000000       0.010
  -0.06250000 -0.37500000  0.00000000       0.010
  -0.37500000 -0.06250000  0.00000000       0.010
  -0.06250000  0.31250000  0.00000000       0.010
   0.31250000  0.37500000  0.00000000       0.010
  -0.18750000  0.06250000  0.00000000       0.010
  -0.25000000 -0.18750000  0.00000000       0.010
  -0.06250000 -0.25000000  0.00000000       0.010
  -0.25000000 -0.06250000  0.00000000       0.010
  -0.06250000  0.18750000  0.00000000       0.010
   0.18750000  0.25000000  0.00000000       0.010
  -0.06250000  0.06250000  0.00000000       0.010
  -0.12500000 -0.06250000  0.00000000       0.010
  -0.06250000 -0.12500000  0.00000000       0.010
   0.18750000  0.18750000  0.00000000       0.010
   0.00000000  0.18750000  0.00000000       0.010
  -0.18750000  0.00000000  0.00000000       0.010
   0.31250000  0.18750000  0.00000000       0.010
   0.12500000  0.31250000  0.00000000       0.010
  -0.18750000  0.12500000  0.00000000       0.010
   0.12500000 -0.18750000  0.00000000       0.010
  -0.18750000 -0.31250000  0.00000000       0.010
  -0.31250000 -0.12500000  0.00000000       0.010
   0.43750000  0.18750000  0.00000000       0.010
   0.25000000  0.43750000  0.00000000       0.010
  -0.18750000  0.25000000  0.00000000       0.010
   0.25000000 -0.18750000  0.00000000       0.010
  -0.18750000 -0.43750000  0.00000000       0.010
  -0.43750000 -0.25000000  0.00000000       0.010
  -0.43750000  0.18750000  0.00000000       0.010
   0.37500000 -0.43750000  0.00000000       0.010
  -0.18750000  0.37500000  0.00000000       0.010
   0.37500000 -0.18750000  0.00000000       0.010
  -0.18750000  0.43750000  0.00000000       0.010
   0.43750000 -0.37500000  0.00000000       0.010
  -0.31250000  0.18750000  0.00000000       0.010
   0.50000000 -0.31250000  0.00000000       0.010
  -0.18750000  0.50000000  0.00000000       0.010
   0.50000000 -0.18750000  0.00000000       0.010
  -0.18750000  0.31250000  0.00000000       0.010
   0.31250000  0.50000000  0.00000000       0.010
  -0.18750000  0.18750000  0.00000000       0.010
  -0.37500000 -0.18750000  0.00000000       0.010
  -0.18750000 -0.37500000  0.00000000       0.010
   0.31250000  0.31250000  0.00000000       0.010
   0.00000000  0.31250000  0.00000000       0.010
  -0.31250000  0.00000000  0.00000000       0.010
   0.43750000  0.31250000  0.00000000       0.010
   0.12500000  0.43750000  0.00000000       0.010
  -0.31250000  0.12500000  0.00000000       0.010
   0.12500000 -0.31250000  0.00000000       0.010
  -0.31250000 -0.43750000  0.00000000       0.010
  -0.43750000 -0.12500000  0.00000000       0.010
  -0.43750000  0.31250000  0.00000000       0.010
   0.25000000 -0.43750000  0.00000000       0.010
  -0.31250000  0.25000000  0.00000000       0.010
   0.25000000 -0.31250000  0.00000000       0.010
  -0.31250000  0.43750000  0.00000000       0.010
   0.43750000 -0.25000000  0.00000000       0.010
  -0.31250000  0.31250000  0.00000000       0.010
   0.37500000 -0.31250000  0.00000000       0.010
  -0.31250000  0.37500000  0.00000000       0.010
   0.43750000  0.43750000  0.00000000       0.010
   0.00000000  0.43750000  0.00000000       0.010
  -0.43750000 -0.00000000  0.00000000       0.010
  -0.43750000  0.43750000  0.00000000       0.010
   0.12500000 -0.43750000  0.00000000       0.010
  -0.43750000  0.12500000  0.00000000       0.010
 
 position of ions in fractional coordinates (direct lattice) 
   0.33913947  0.83302472  0.54048193
   0.00254665  0.04416127  0.71274958
   0.02133651  0.15527952  0.68404803
   0.86777890  0.20430924  0.73615209
   0.90794573  0.91919270  0.70323558
   0.21202594  0.90906622  0.72569317
   0.50147230  0.00126014  0.39091390
   0.50701195  0.49849552  0.61575606
   0.00789554  0.49869841  0.61579715
   0.50796649  0.99821536  0.61586534
   0.00758157  0.99808915  0.61535840
   0.00139793  0.00151485  0.39081218
   0.83907248  0.33321267  0.54042176
   0.67029070  0.66766201  0.46637624
   0.17038369  0.66736652  0.46616208
   0.67025482  0.16754085  0.46616399
   0.17025491  0.16748095  0.46620041
   0.50155227  0.50160900  0.39086836
   0.00116700  0.50154518  0.39090000
   0.33932976  0.33268210  0.54067110
   0.83933750  0.83309326  0.54049692
 
 position of ions in cartesian coordinates  (Angst):
   4.19980653  4.00955401 16.65060495
   0.13687497  0.21255909 21.95764743
   0.55009620  0.74739876 21.07344002
   5.39075403  0.98339089 22.67860789
   7.60060650  4.42430185 21.66455019
   3.70464140  4.37556059 22.35640023
   2.79061432  0.00606539 12.04286879
   4.20318505  2.39938226 18.96957196
   1.42973012  2.40035882 18.97083788
   5.59717655  4.80465742 18.97293869
   2.81575685  4.80404997 18.95732134
   0.01197915  0.00729137 12.03973510
   5.58942133  1.60383499 16.64875132
   5.58076717  3.21362242 14.36763389
   2.80153319  3.21220015 14.36103631
   4.19076618  0.80641554 14.36109526
   1.41167060  0.80612723 14.36221729
   4.18149309  2.41436820 12.04146585
   1.40024479  2.41406099 12.04244059
   2.81044718  1.60128121 16.65643287
   6.98002729  4.00988392 16.65106672
 


--------------------------------------------------------------------------------------------------------


 k-point  1 :   0.0625 0.0625 0.0000  plane waves:   12325
 k-point  2 :   0.0000 0.0625 0.0000  plane waves:   12325
 k-point  3 :  -0.0625 0.0000 0.0000  plane waves:   12325
 k-point  4 :   0.1875 0.0625 0.0000  plane waves:   12294
 k-point  5 :   0.1250 0.1875 0.0000  plane waves:   12294
 k-point  6 :  -0.0625 0.1250 0.0000  plane waves:   12294
 k-point  7 :   0.1250-0.0625 0.0000  plane waves:   12294
 k-point  8 :  -0.0625-0.1875 0.0000  plane waves:   12294
 k-point  9 :  -0.1875-0.1250 0.0000  plane waves:   12294
 k-point 10 :   0.3125 0.0625 0.0000  plane waves:   12263
 k-point 11 :   0.2500 0.3125 0.0000  plane waves:   12263
 k-point 12 :  -0.0625 0.2500 0.0000  plane waves:   12263
 k-point 13 :   0.2500-0.0625 0.0000  plane waves:   12263
 k-point 14 :  -0.0625-0.3125 0.0000  plane waves:   12263
 k-point 15 :  -0.3125-0.2500 0.0000  plane waves:   12263
 k-point 16 :   0.4375 0.0625 0.0000  plane waves:   12221
 k-point 17 :   0.3750 0.4375 0.0000  plane waves:   12221
 k-point 18 :  -0.0625 0.3750 0.0000  plane waves:   12221
 k-point 19 :   0.3750-0.0625 0.0000  plane waves:   12221
 k-point 20 :  -0.0625-0.4375 0.0000  plane waves:   12221
 k-point 21 :  -0.4375-0.3750 0.0000  plane waves:   12221
 k-point 22 :  -0.4375 0.0625 0.0000  plane waves:   12211
 k-point 23 :   0.5000-0.4375 0.0000  plane waves:   12211
 k-point 24 :  -0.0625 0.5000 0.0000  plane waves:   12211
 k-point 25 :   0.5000-0.0625 0.0000  plane waves:   12211
 k-point 26 :  -0.0625 0.4375 0.0000  plane waves:   12211
 k-point 27 :   0.4375 0.5000 0.0000  plane waves:   12211
 k-point 28 :  -0.3125 0.0625 0.0000  plane waves:   12242
 k-point 29 :  -0.3750-0.3125 0.0000  plane waves:   12242
 k-point 30 :  -0.0625-0.3750 0.0000  plane waves:   12242
 k-point 31 :  -0.3750-0.0625 0.0000  plane waves:   12242
 k-point 32 :  -0.0625 0.3125 0.0000  plane waves:   12242
 k-point 33 :   0.3125 0.3750 0.0000  plane waves:   12242
 k-point 34 :  -0.1875 0.0625 0.0000  plane waves:   12280
 k-point 35 :  -0.2500-0.1875 0.0000  plane waves:   12280
 k-point 36 :  -0.0625-0.2500 0.0000  plane waves:   12280
 k-point 37 :  -0.2500-0.0625 0.0000  plane waves:   12280
 k-point 38 :  -0.0625 0.1875 0.0000  plane waves:   12280
 k-point 39 :   0.1875 0.2500 0.0000  plane waves:   12280
 k-point 40 :  -0.0625 0.0625 0.0000  plane waves:   12329
 k-point 41 :  -0.1250-0.0625 0.0000  plane waves:   12329
 k-point 42 :  -0.0625-0.1250 0.0000  plane waves:   12329
 k-point 43 :   0.1875 0.1875 0.0000  plane waves:   12277
 k-point 44 :   0.0000 0.1875 0.0000  plane waves:   12277
 k-point 45 :  -0.1875 0.0000 0.0000  plane waves:   12277
 k-point 46 :   0.3125 0.1875 0.0000  plane waves:   12288
 k-point 47 :   0.1250 0.3125 0.0000  plane waves:   12288
 k-point 48 :  -0.1875 0.1250 0.0000  plane waves:   12288
 k-point 49 :   0.1250-0.1875 0.0000  plane waves:   12288
 k-point 50 :  -0.1875-0.3125 0.0000  plane waves:   12288
 k-point 51 :  -0.3125-0.1250 0.0000  plane waves:   12288
 k-point 52 :   0.4375 0.1875 0.0000  plane waves:   12234
 k-point 53 :   0.2500 0.4375 0.0000  plane waves:   12234
 k-point 54 :  -0.1875 0.2500 0.0000  plane waves:   12234
 k-point 55 :   0.2500-0.1875 0.0000  plane waves:   12234
 k-point 56 :  -0.1875-0.4375 0.0000  plane waves:   12234
 k-point 57 :  -0.4375-0.2500 0.0000  plane waves:   12234
 k-point 58 :  -0.4375 0.1875 0.0000  plane waves:   12216
 k-point 59 :   0.3750-0.4375 0.0000  plane waves:   12216
 k-point 60 :  -0.1875 0.3750 0.0000  plane waves:   12216
 k-point 61 :   0.3750-0.1875 0.0000  plane waves:   12216
 k-point 62 :  -0.1875 0.4375 0.0000  plane waves:   12216
 k-point 63 :   0.4375-0.3750 0.0000  plane waves:   12216
 k-point 64 :  -0.3125 0.1875 0.0000  plane waves:   12215
 k-point 65 :   0.5000-0.3125 0.0000  plane waves:   12215
 k-point 66 :  -0.1875 0.5000 0.0000  plane waves:   12215
 k-point 67 :   0.5000-0.1875 0.0000  plane waves:   12215
 k-point 68 :  -0.1875 0.3125 0.0000  plane waves:   12215
 k-point 69 :   0.3125 0.5000 0.0000  plane waves:   12215
 k-point 70 :  -0.1875 0.1875 0.0000  plane waves:   12289
 k-point 71 :  -0.3750-0.1875 0.0000  plane waves:   12289
 k-point 72 :  -0.1875-0.3750 0.0000  plane waves:   12289
 k-point 73 :   0.3125 0.3125 0.0000  plane waves:   12275
 k-point 74 :   0.0000 0.3125 0.0000  plane waves:   12275
 k-point 75 :  -0.3125 0.0000 0.0000  plane waves:   12275
 k-point 76 :   0.4375 0.3125 0.0000  plane waves:   12239
 k-point 77 :   0.1250 0.4375 0.0000  plane waves:   12239
 k-point 78 :  -0.3125 0.1250 0.0000  plane waves:   12239
 k-point 79 :   0.1250-0.3125 0.0000  plane waves:   12239
 k-point 80 :  -0.3125-0.4375 0.0000  plane waves:   12239
 k-point 81 :  -0.4375-0.1250 0.0000  plane waves:   12239
 k-point 82 :  -0.4375 0.3125 0.0000  plane waves:   12235
 k-point 83 :   0.2500-0.4375 0.0000  plane waves:   12235
 k-point 84 :  -0.3125 0.2500 0.0000  plane waves:   12235
 k-point 85 :   0.2500-0.3125 0.0000  plane waves:   12235
 k-point 86 :  -0.3125 0.4375 0.0000  plane waves:   12235
 k-point 87 :   0.4375-0.2500 0.0000  plane waves:   12235
 k-point 88 :  -0.3125 0.3125 0.0000  plane waves:   12232
 k-point 89 :   0.3750-0.3125 0.0000  plane waves:   12232
 k-point 90 :  -0.3125 0.3750 0.0000  plane waves:   12232
 k-point 91 :   0.4375 0.4375 0.0000  plane waves:   12200
 k-point 92 :   0.0000 0.4375 0.0000  plane waves:   12200
 k-point 93 :  -0.4375-0.0000 0.0000  plane waves:   12200
 k-point 94 :  -0.4375 0.4375 0.0000  plane waves:   12214
 k-point 95 :   0.1250-0.4375 0.0000  plane waves:   12214
 k-point 96 :  -0.4375 0.1250 0.0000  plane waves:   12214

 maximum and minimum number of plane-waves per node :      3101     2992

 maximum number of plane-waves:     12329
 maximum index in each direction: 
   IXMAX=    8   IYMAX=    8   IZMAX=   46
   IXMIN=   -8   IYMIN=   -8   IZMIN=  -46


 real space projection operators:
  total allocation   :       5091.23 KBytes
  max/ min on nodes  :       1273.41       1272.21


 parallel 3D FFT for wavefunctions:
    minimum data exchange during FFTs selected (reduces bandwidth)
 parallel 3D FFT for charge:
    minimum data exchange during FFTs selected (reduces bandwidth)


 total amount of memory used by VASP MPI-rank0   164307. kBytes
=======================================================================

   base      :      30000. kBytes
   nonlr-proj:       2354. kBytes
   fftplans  :       2967. kBytes
   grid      :       6321. kBytes
   one-center:         93. kBytes
   wavefun   :     122572. kBytes
 
     INWAV:  cpu time    0.0000: real time    0.0000
 Broyden mixing: mesh for mixing (old mesh)
   NGX = 17   NGY = 17   NGZ = 93
  (NGX  = 56   NGY  = 56   NGZ  =288)
  gives a total of  26877 points

 initial charge density was supplied:
 charge density of overlapping atoms calculated
 number of electron     168.0000000 magnetization 
 keeping initial charge density in first step


--------------------------------------------------------------------------------------------------------


 Maximum index for non-local projection operator          537
 Maximum index for augmentation-charges          716 (set IRDMAX)


--------------------------------------------------------------------------------------------------------


 First call to EWALD:  gamma=   0.189
 Maximum number of real-space cells 5x 5x 1
 Maximum number of reciprocal cells 2x 2x 8

    FEWALD:  cpu time    0.0014: real time    0.0014


--------------------------------------- Iteration      1(   1)  ---------------------------------------


    POTLOK:  cpu time    0.0258: real time    0.0324
    SETDIJ:  cpu time    0.0036: real time    0.0036
     EDDAV:  cpu time   13.8155: real time   13.8177
       DOS:  cpu time    0.0077: real time    0.0077
    --------------------------------------------
      LOOP:  cpu time   13.8525: real time   13.8613

 eigenvalue-minimisations  : 19288
 total energy-change (2. order) : 0.1024936E+04  (-0.5827685E+04)
 number of electron     168.0000000 magnetization 
 augmentation part      168.0000000 magnetization 

 Free energy of the ion-electron system (eV)
  ---------------------------------------------------
  alpha Z        PSCENC =       324.87461712
  Ewald energy   TEWEN  =    100733.56049793
  -Hartree energ DENC   =   -113020.53033067
  -exchange      EXHF   =         0.00000000
  -V(xc)+E(xc)   XCENC  =        68.96803311
  PAW double counting   =     11288.27476651   -10829.50941267
  entropy T*S    EENTRO =         0.00235682
  eigenvalues    EBANDS =       568.65858707
  atomic energy  EATOM  =     11890.63736546
  Solvation  Ediel_sol  =         0.00000000
  ---------------------------------------------------
  free energy    TOTEN  =      1024.93648067 eV

  energy without entropy =     1024.93412386  energy(sigma->0) =     1024.93569507


--------------------------------------------------------------------------------------------------------




--------------------------------------- Iteration      1(   2)  ---------------------------------------


     EDDAV:  cpu time   16.3309: real time   16.3331
       DOS:  cpu time    0.0083: real time    0.0083
    --------------------------------------------
      LOOP:  cpu time   16.3392: real time   16.3414

 eigenvalue-minimisations  : 23872
 total energy-change (2. order) :-0.1053691E+04  (-0.9780789E+03)
 number of electron     168.0000000 magnetization 
 augmentation part      168.0000000 magnetization 

 Free energy of the ion-electron system (eV)
  ---------------------------------------------------
  alpha Z        PSCENC =       324.87461712
  Ewald energy   TEWEN  =    100733.56049793
  -Hartree energ DENC   =   -113020.53033067
  -exchange      EXHF   =         0.00000000
  -V(xc)+E(xc)   XCENC  =        68.96803311
  PAW double counting   =     11288.27476651   -10829.50941267
  entropy T*S    EENTRO =        -0.00108625
  eigenvalues    EBANDS =      -485.02890038
  atomic energy  EATOM  =     11890.63736546
  Solvation  Ediel_sol  =         0.00000000
  ---------------------------------------------------
  free energy    TOTEN  =       -28.75444985 eV

  energy without entropy =      -28.75336360  energy(sigma->0) =      -28.75408776


--------------------------------------------------------------------------------------------------------




--------------------------------------- Iteration      1(   3)  ---------------------------------------


     EDDAV:  cpu time   15.8723: real time   15.8742
       DOS:  cpu time    0.0087: real time    0.0087
    --------------------------------------------
      LOOP:  cpu time   15.8810: real time   15.8829

 eigenvalue-minimisations  : 22960
 total energy-change (2. order) :-0.9210673E+02  (-0.8506858E+02)
 number of electron     168.0000000 magnetization 
 augmentation part      168.0000000 magnetization 

 Free energy of the ion-electron system (eV)
  ---------------------------------------------------
  alpha Z        PSCENC =       324.87461712
  Ewald energy   TEWEN  =    100733.56049793
  -Hartree energ DENC   =   -113020.53033067
  -exchange      EXHF   =         0.00000000
  -V(xc)+E(xc)   XCENC  =        68.96803311
  PAW double counting   =     11288.27476651   -10829.50941267
  entropy T*S    EENTRO =        -0.00607900
  eigenvalues    EBANDS =      -577.13064139
  atomic energy  EATOM  =     11890.63736546
  Solvation  Ediel_sol  =         0.00000000
  ---------------------------------------------------
  free energy    TOTEN  =      -120.86118361 eV

  energy without entropy =     -120.85510461  energy(sigma->0) =     -120.85915727


--------------------------------------------------------------------------------------------------------




--------------------------------------- Iteration      1(   4)  ---------------------------------------


     EDDAV:  cpu time   17.3014: real time   17.3023
       DOS:  cpu time    0.0087: real time    0.0087
    --------------------------------------------
      LOOP:  cpu time   17.3102: real time   17.3111

 eigenvalue-minimisations  : 25560
 total energy-change (2. order) :-0.4446331E+01  (-0.4238510E+01)
 number of electron     168.0000000 magnetization 
 augmentation part      168.0000000 magnetization 

 Free energy of the ion-electron system (eV)
  ---------------------------------------------------
  alpha Z        PSCENC =       324.87461712
  Ewald energy   TEWEN  =    100733.56049793
  -Hartree energ DENC   =   -113020.53033067
  -exchange      EXHF   =         0.00000000
  -V(xc)+E(xc)   XCENC  =        68.96803311
  PAW double counting   =     11288.27476651   -10829.50941267
  entropy T*S    EENTRO =        -0.00691622
  eigenvalues    EBANDS =      -581.57613507
  atomic energy  EATOM  =     11890.63736546
  Solvation  Ediel_sol  =         0.00000000
  ---------------------------------------------------
  free energy    TOTEN  =      -125.30751451 eV

  energy without entropy =     -125.30059829  energy(sigma->0) =     -125.30520910


--------------------------------------------------------------------------------------------------------




--------------------------------------- Iteration      1(   5)  ---------------------------------------


     EDDAV:  cpu time   18.1030: real time   18.1103
       DOS:  cpu time    0.0089: real time    0.0089
    CHARGE:  cpu time    0.7238: real time    0.7238
    MIXING:  cpu time    0.0012: real time    0.0012
    --------------------------------------------
      LOOP:  cpu time   18.8368: real time   18.8442

 eigenvalue-minimisations  : 26940
 total energy-change (2. order) :-0.1422421E+00  (-0.1409662E+00)
 number of electron     167.9999895 magnetization 
 augmentation part       47.1057900 magnetization 

 Broyden mixing:
  rms(total) = 0.42861E+01    rms(broyden)= 0.42860E+01
  rms(prec ) = 0.43299E+01
  weight for this iteration     100.00

 Free energy of the ion-electron system (eV)
  ---------------------------------------------------
  alpha Z        PSCENC =       324.87461712
  Ewald energy   TEWEN  =    100733.56049793
  -Hartree energ DENC   =   -113020.53033067
  -exchange      EXHF   =         0.00000000
  -V(xc)+E(xc)   XCENC  =        68.96803311
  PAW double counting   =     11288.27476651   -10829.50941267
  entropy T*S    EENTRO =        -0.00710632
  eigenvalues    EBANDS =      -581.71818703
  atomic energy  EATOM  =     11890.63736546
  Solvation  Ediel_sol  =         0.00000000
  ---------------------------------------------------
  free energy    TOTEN  =      -125.44975656 eV

  energy without entropy =     -125.44265025  energy(sigma->0) =     -125.44738779


--------------------------------------------------------------------------------------------------------




--------------------------------------- Iteration      1(   6)  ---------------------------------------


    POTLOK:  cpu time    0.0235: real time    0.0239
    SETDIJ:  cpu time    0.0035: real time    0.0035
     EDDAV:  cpu time   15.8516: real time   15.8519
       DOS:  cpu time    0.0097: real time    0.0097
    CHARGE:  cpu time    0.7457: real time    0.7457
    MIXING:  cpu time    0.0011: real time    0.0012
    --------------------------------------------
      LOOP:  cpu time   16.6353: real time   16.6359

 eigenvalue-minimisations  : 22828
 total energy-change (2. order) : 0.5425203E+01  (-0.3375902E+01)
 number of electron     167.9999890 magnetization 
 augmentation part       49.7681043 magnetization 

 Broyden mixing:
  rms(total) = 0.35318E+01    rms(broyden)= 0.35317E+01
  rms(prec ) = 0.38734E+01
  weight for this iteration     100.00

 eigenvalues of (default mixing * dielectric matrix)
  average eigenvalue GAMMA=   0.9530
  0.9530

 Free energy of the ion-electron system (eV)
  ---------------------------------------------------
  alpha Z        PSCENC =       324.87461712
  Ewald energy   TEWEN  =    100733.56049793
  -Hartree energ DENC   =   -112819.91134010
  -exchange      EXHF   =         0.00000000
  -V(xc)+E(xc)   XCENC  =        65.93406942
  PAW double counting   =     12558.33199251   -12123.12787897
  entropy T*S    EENTRO =         0.01225305
  eigenvalues    EBANDS =      -750.33612991
  atomic energy  EATOM  =     11890.63736546
  Solvation  Ediel_sol  =         0.00000000
  ---------------------------------------------------
  free energy    TOTEN  =      -120.02455348 eV

  energy without entropy =     -120.03680653  energy(sigma->0) =     -120.02863783


--------------------------------------------------------------------------------------------------------




--------------------------------------- Iteration      1(   7)  ---------------------------------------


    POTLOK:  cpu time    0.0224: real time    0.0236
    SETDIJ:  cpu time    0.0035: real time    0.0035
     EDDAV:  cpu time   19.2444: real time   19.2457
       DOS:  cpu time    0.0089: real time    0.0089
    CHARGE:  cpu time    0.7252: real time    0.7252
    MIXING:  cpu time    0.0013: real time    0.0012
    --------------------------------------------
      LOOP:  cpu time   20.0057: real time   20.0081

 eigenvalue-minimisations  : 29000
 total energy-change (2. order) :-0.5214311E+02  (-0.2327243E+02)
 number of electron     167.9999899 magnetization 
 augmentation part       47.8958192 magnetization 

 Broyden mixing:
  rms(total) = 0.58316E+01    rms(broyden)= 0.58314E+01
  rms(prec ) = 0.74190E+01
  weight for this iteration     100.00

 eigenvalues of (default mixing * dielectric matrix)
  average eigenvalue GAMMA=   0.8717
  1.5854  0.1580

 Free energy of the ion-electron system (eV)
  ---------------------------------------------------
  alpha Z        PSCENC =       324.87461712
  Ewald energy   TEWEN  =    100733.56049793
  -Hartree energ DENC   =   -112907.56972773
  -exchange      EXHF   =         0.00000000
  -V(xc)+E(xc)   XCENC  =        65.49288063
  PAW double counting   =     13180.71156787   -12752.11053185
  entropy T*S    EENTRO =        -0.01040922
  eigenvalues    EBANDS =      -707.75392118
  atomic energy  EATOM  =     11890.63736546
  Solvation  Ediel_sol  =         0.00000000
  ---------------------------------------------------
  free energy    TOTEN  =      -172.16766096 eV

  energy without entropy =     -172.15725174  energy(sigma->0) =     -172.16419122


--------------------------------------------------------------------------------------------------------




--------------------------------------- Iteration      1(   8)  ---------------------------------------


    POTLOK:  cpu time    0.0235: real time    0.0236
    SETDIJ:  cpu time    0.0035: real time    0.0035
     EDDAV:  cpu time   18.5161: real time   18.5166
       DOS:  cpu time    0.0097: real time    0.0097
    CHARGE:  cpu time    0.7250: real time    0.7251
    MIXING:  cpu time    0.0011: real time    0.0011
    --------------------------------------------
      LOOP:  cpu time   19.2788: real time   19.2795

 eigenvalue-minimisations  : 27592
 total energy-change (2. order) : 0.2647630E+02  (-0.9932244E+01)
 number of electron     167.9999886 magnetization 
 augmentation part       49.2297597 magnetization 

 Broyden mixing:
  rms(total) = 0.45351E+01    rms(broyden)= 0.45350E+01
  rms(prec ) = 0.50769E+01
  weight for this iteration     100.00

 eigenvalues of (default mixing * dielectric matrix)
  average eigenvalue GAMMA=   0.8303
  2.0565  0.2172  0.2172

 Free energy of the ion-electron system (eV)
  ---------------------------------------------------
  alpha Z        PSCENC =       324.87461712
  Ewald energy   TEWEN  =    100733.56049793
  -Hartree energ DENC   =   -112972.82857289
  -exchange      EXHF   =         0.00000000
  -V(xc)+E(xc)   XCENC  =        64.88601667
  PAW double counting   =     13996.07223834   -13576.81172553
  entropy T*S    EENTRO =        -0.00870869
  eigenvalues    EBANDS =      -606.07308601
  atomic energy  EATOM  =     11890.63736546
  Solvation  Ediel_sol  =         0.00000000
[...]
     21      -5.1746      2.00000
     22      -5.1384      2.00000
     23      -5.0909      2.00000
     24      -5.0385      2.00000
     25      -4.9856      2.00000
     26      -4.9256      2.00000
     27      -4.8274      2.00000
     28      -4.7615      2.00000
     29      -4.7385      2.00000
     30      -4.7026      2.00000
     31      -4.6517      2.00000
     32      -4.6263      2.00000
     33      -4.3391      2.00000
     34      -4.2456      2.00000
     35      -4.2107      2.00000
     36      -4.1548      2.00000
     37      -4.1026      2.00000
     38      -4.0623      2.00000
     39      -3.9157      2.00000
     40      -3.9097      2.00000
     41      -3.7624      2.00000
     42      -3.7201      2.00000
     43      -3.7004      2.00000
     44      -3.6363      2.00000
     45      -3.5809      2.00000
     46      -3.4329      2.00000
     47      -3.3836      2.00000
     48      -3.3761      2.00000
     49      -3.3059      2.00000
     50      -3.2684      2.00000
     51      -3.2472      2.00000
     52      -3.2242      2.00000
     53      -3.1803      2.00000
     54      -3.0544      2.00000
     55      -2.9810      2.00000
     56      -2.9183      2.00000
     57      -2.8134      2.00000
     58      -2.6913      2.00000
     59      -2.5501      2.00000
     60      -2.4974      2.00000
     61      -2.4660      2.00000
     62      -2.4275      2.00000
     63      -2.2799      2.00000
     64      -2.2064      2.00000
     65      -2.0728      2.00000
     66      -2.0430      2.00000
     67      -1.9380      2.00000
     68      -1.8460      2.00000
     69      -1.8084      2.00000
     70      -1.7611      2.00000
     71      -1.6670      2.00000
     72      -1.6349      2.00000
     73      -1.5536      2.00000
     74      -1.5043      2.00000
     75      -1.4349      2.00000
     76      -1.3481      2.00000
     77      -1.3013      2.00000
     78      -1.1971      2.00000
     79      -1.0316      2.00025
     80      -0.8790      2.00838
     81      -0.8663      2.01056
     82      -0.7672      2.04369
     83      -0.6588      2.06366
     84      -0.5811      1.91715
     85      -0.4867      1.36869
     86      -0.3955      0.61893
     87      -0.3502      0.30713
     88      -0.2005     -0.07082
     89      -0.0573     -0.02036
     90       0.0465     -0.00299
     91       0.5709     -0.00000
     92       0.9482     -0.00000
     93       1.8617     -0.00000
     94       1.9401     -0.00000
     95       2.0792     -0.00000
     96       2.6794     -0.00000
     97       3.5952     -0.00000
     98       3.8069     -0.00000
     99       4.3268     -0.00000
    100       4.4050     -0.00000

 k-point    96 :      -0.4375    0.1250    0.0000
  band No.  band energies     occupation 
      1     -12.5968      2.00000
      2      -7.9925      2.00000
      3      -7.9410      2.00000
      4      -6.9464      2.00000
      5      -6.9056      2.00000
      6      -6.5463      2.00000
      7      -6.2785      2.00000
      8      -6.1861      2.00000
      9      -6.1449      2.00000
     10      -6.0691      2.00000
     11      -5.9437      2.00000
     12      -5.9145      2.00000
     13      -5.8487      2.00000
     14      -5.7863      2.00000
     15      -5.6723      2.00000
     16      -5.5138      2.00000
     17      -5.4559      2.00000
     18      -5.4125      2.00000
     19      -5.3596      2.00000
     20      -5.2561      2.00000
     21      -5.1727      2.00000
     22      -5.1373      2.00000
     23      -5.0949      2.00000
     24      -5.0531      2.00000
     25      -4.9528      2.00000
     26      -4.9223      2.00000
     27      -4.8211      2.00000
     28      -4.7758      2.00000
     29      -4.7501      2.00000
     30      -4.7092      2.00000
     31      -4.6553      2.00000
     32      -4.6263      2.00000
     33      -4.3376      2.00000
     34      -4.2440      2.00000
     35      -4.2095      2.00000
     36      -4.1619      2.00000
     37      -4.1055      2.00000
     38      -4.0722      2.00000
     39      -3.9212      2.00000
     40      -3.9191      2.00000
     41      -3.7556      2.00000
     42      -3.7207      2.00000
     43      -3.6975      2.00000
     44      -3.6459      2.00000
     45      -3.5655      2.00000
     46      -3.4345      2.00000
     47      -3.3856      2.00000
     48      -3.3687      2.00000
     49      -3.3057      2.00000
     50      -3.2947      2.00000
     51      -3.2557      2.00000
     52      -3.2238      2.00000
     53      -3.1670      2.00000
     54      -3.0597      2.00000
     55      -2.9921      2.00000
     56      -2.9244      2.00000
     57      -2.8057      2.00000
     58      -2.6970      2.00000
     59      -2.5447      2.00000
     60      -2.5018      2.00000
     61      -2.4536      2.00000
     62      -2.4158      2.00000
     63      -2.2847      2.00000
     64      -2.2120      2.00000
     65      -2.0796      2.00000
     66      -2.0494      2.00000
     67      -1.9341      2.00000
     68      -1.8482      2.00000
     69      -1.8227      2.00000
     70      -1.7572      2.00000
     71      -1.6803      2.00000
     72      -1.6215      2.00000
     73      -1.5701      2.00000
     74      -1.4891      2.00000
     75      -1.4299      2.00000
     76      -1.3494      2.00000
     77      -1.3037      2.00000
     78      -1.1927      2.00000
     79      -1.0253      2.00029
     80      -0.8930      2.00643
     81      -0.8535      2.01319
     82      -0.7715      2.04171
     83      -0.6444      2.05276
     84      -0.5689      1.87052
     85      -0.5024      1.48728
     86      -0.4019      0.66885
     87      -0.3623      0.38222
     88      -0.1811     -0.06919
     89      -0.0389     -0.01524
     90       0.0342     -0.00389
     91       0.5690     -0.00000
     92       0.9507     -0.00000
     93       1.8598     -0.00000
     94       1.9047     -0.00000
     95       2.1396     -0.00000
     96       2.6806     -0.00000
     97       3.5868     -0.00000
     98       3.7882     -0.00000
     99       4.3246     -0.00000
    100       4.4295     -0.00000


--------------------------------------------------------------------------------------------------------


 soft charge-density along one line, spin component           1
         0         1         2         3         4         5         6         7         8         9
 total charge-density along one line
 
 pseudopotential strength for first ion, spin component:           1
 -7.954   0.000   0.002  -0.009   0.000  -8.103   0.000   0.002
  0.000  -7.939  -0.002   0.000  -0.006   0.000  -8.088  -0.002
  0.002  -0.002  -7.956   0.002  -0.000   0.002  -0.002  -8.105
 -0.009   0.000   0.002  -7.939   0.000  -0.009   0.000   0.002
  0.000  -0.006  -0.000   0.000  -7.954   0.000  -0.006  -0.000
 -8.103   0.000   0.002  -0.009   0.000  -8.235   0.000   0.002
  0.000  -8.088  -0.002   0.000  -0.006   0.000  -8.220  -0.002
  0.002  -0.002  -8.105   0.002  -0.000   0.002  -0.002  -8.237
 -0.009   0.000   0.002  -8.088   0.000  -0.008   0.000   0.002
  0.000  -0.006  -0.000   0.000  -8.102   0.000  -0.006  -0.000
  0.000   0.001  -0.001  -0.001   0.000   0.000   0.001  -0.001
  0.000   0.001  -0.001  -0.001   0.000   0.000   0.001  -0.001
  0.000  -0.002   0.000   0.000  -0.000   0.000  -0.002   0.000
  0.000  -0.000  -0.002   0.000  -0.000   0.000  -0.000  -0.002
 -0.000   0.000  -0.000  -0.002   0.000  -0.000   0.000  -0.000
  0.000  -0.002   0.000   0.000  -0.000   0.000  -0.002   0.000
  0.000  -0.000  -0.003   0.000  -0.000   0.000  -0.000  -0.003
 -0.000   0.000  -0.000  -0.002   0.000  -0.000   0.000  -0.000
 total augmentation occupancy for first ion, spin component:           1
  6.219  -0.030   0.073   0.241   0.002  -4.206   0.028  -0.054  -0.346  -0.001   0.012   0.000   0.001   0.002  -0.001   0.000
 -0.030   6.277  -0.054   0.014   0.251   0.028  -4.078   0.038  -0.000  -0.351  -0.017   0.001   0.004  -0.001   0.003  -0.001
  0.073  -0.054   6.176   0.059  -0.019  -0.054   0.038  -4.268  -0.037   0.013   0.058  -0.033  -0.000   0.026  -0.001   0.000
  0.241   0.014   0.059   6.289  -0.039  -0.346  -0.000  -0.036  -4.098   0.035   0.032  -0.000   0.003   0.002   0.001   0.000
  0.002   0.251  -0.019  -0.039   6.227  -0.001  -0.351   0.013   0.035  -4.213  -0.009  -0.001   0.001  -0.000   0.004  -0.000
 -4.206   0.028  -0.054  -0.346  -0.001   4.107  -0.026   0.040   0.426   0.001  -0.013   0.002  -0.000  -0.002  -0.001   0.000
  0.028  -4.078   0.038  -0.000  -0.351  -0.026   3.829  -0.025  -0.010   0.426   0.013   0.001  -0.010   0.001  -0.002   0.001
 -0.054   0.038  -4.268  -0.036   0.013   0.040  -0.025   4.247   0.019  -0.009  -0.067   0.031   0.000  -0.025   0.000   0.000
 -0.346  -0.000  -0.037  -4.098   0.035   0.426  -0.010   0.019   3.856  -0.032  -0.030   0.002  -0.002  -0.003  -0.008  -0.000
 -0.001  -0.351   0.013   0.035  -4.213   0.001   0.426  -0.009  -0.032   4.113   0.009   0.000  -0.003   0.000  -0.004   0.000
  0.012  -0.017   0.058   0.032  -0.009  -0.013   0.013  -0.067  -0.030   0.009   3.069  -0.849   0.001  -0.018  -0.001  -0.000
  0.000   0.001  -0.033  -0.000  -0.001   0.002   0.001   0.031   0.002   0.000  -0.849   0.257  -0.000   0.005   0.001   0.000
  0.001   0.004  -0.000   0.003   0.001  -0.000  -0.010   0.000  -0.002  -0.003   0.001  -0.000   0.248   0.001  -0.001  -0.009
  0.002  -0.001   0.026   0.002  -0.000  -0.002   0.001  -0.025  -0.003   0.000  -0.018   0.005   0.001   0.243  -0.002  -0.000
 -0.001   0.003  -0.001   0.001   0.004  -0.001  -0.002   0.000  -0.008  -0.004  -0.001   0.001  -0.001  -0.002   0.249   0.000
  0.000  -0.001   0.000   0.000  -0.000   0.000   0.001   0.000  -0.000   0.000  -0.000   0.000  -0.009  -0.000   0.000   0.000
  0.000   0.000  -0.003   0.000   0.000   0.000  -0.000   0.001   0.000  -0.000   0.000  -0.000  -0.000  -0.008   0.000   0.000
 -0.000   0.000   0.000  -0.001  -0.000   0.000  -0.000  -0.000   0.001   0.000   0.000  -0.000   0.000   0.000  -0.009  -0.000


------------------------ aborting loop because EDIFF is reached ----------------------------------------



 DIPCOR: dipole corrections for dipol
 direction  3 min pos    20,
 dipolmoment           0.000000      0.000000     -0.163227 electrons x Angstroem
 Tr[quadrupol]      -945.535105

 energy correction for charged system         0.000000 eV
 dipol+quadrupol energy correction            0.002925 eV
 added-field ion interaction          0.000000 eV  (added to PSCEN)

 
  *************** adding dipol energy to TOTEN NOW **************** 
    CHARGE:  cpu time    0.7319: real time    0.7319
    FORLOC:  cpu time    0.0071: real time    0.0071
    FORNL :  cpu time    3.1717: real time    3.1718
    STRESS:  cpu time    9.5277: real time    9.5279
    FORCOR:  cpu time    0.0285: real time    0.0285
    FORHAR:  cpu time    0.0118: real time    0.0117
    MIXING:  cpu time    0.0039: real time    0.0039
    OFIELD:  cpu time    0.0000: real time    0.0000

  FORCE on cell =-STRESS in cart. coord.  units (eV):
  Direction    XX          YY          ZZ          XY          YZ          ZX
  --------------------------------------------------------------------------------------
  Alpha Z   324.87462   324.87462   324.87462
  Ewald  109627.67542109626.45341************    -1.95889     6.36442    -2.04545
  Hartree112097.81399112097.47020************    -0.50979     2.05587    -0.73766
  E(xc)    -737.32574  -737.32951  -741.75254    -0.01944     0.05310     0.01512
  Local  ************************226879.68821     1.90666    -7.23014     2.66301
  n-local    44.15889    43.92016    26.13163    -0.22373    -0.20480    -0.39246
  augment   834.44128   834.68429   862.65539     0.23469    -0.24839     0.13779
  Kinetic  2384.06860  2384.29490  2456.28599     0.49562    -1.04413     0.06336
  Fock        0.00000     0.00000     0.00000     0.00000     0.00000     0.00000
  -------------------------------------------------------------------------------------
  Total     -10.93954   -10.92934     1.63998    -0.07487    -0.25407    -0.29629
  in kB     -21.26743   -21.24761     3.18827    -0.14556    -0.49394    -0.57601
  external pressure =      -13.11 kB  Pullay stress =        0.00 kB


 VOLUME and BASIS-vectors are now :
 -----------------------------------------------------------------------------
  energy-cutoff  :      350.00
  volume of cell :      824.13
      direct lattice vectors                 reciprocal lattice vectors
     5.557859300  0.000000000  0.000000000     0.179925390 -0.103879972  0.000000000
     2.778929650  4.813247345  0.000000000     0.000000000  0.207759944  0.000000000
     0.000000000  0.000000000 30.806959674     0.000000000  0.000000000  0.032460198

  length of vectors
     5.557859300  5.557859300 30.806959674     0.207759944  0.207759944  0.032460198


 FORCES acting on ions
    electron-ion (+dipol)            ewald-force                    non-local-force                 convergence-correction
 -----------------------------------------------------------------------------------------------
   -.172E+01 0.746E+00 -.822E+03   0.173E+01 -.743E+00 0.822E+03   -.494E-02 -.816E-02 0.263E+00   -.133E-03 -.209E-03 0.374E-01
   0.432E+00 0.851E+00 -.126E+04   -.521E+00 -.110E+01 0.126E+04   0.986E-01 0.236E+00 -.394E+00   0.307E-04 -.178E-04 -.456E-02
   -.187E+02 -.244E+02 -.300E+03   0.207E+02 0.269E+02 0.296E+03   -.197E+01 -.256E+01 0.392E+01   0.373E-04 0.401E-04 -.123E-02
   0.136E+02 -.343E+02 -.329E+03   -.152E+02 0.381E+02 0.333E+03   0.151E+01 -.383E+01 -.355E+01   -.106E-04 0.444E-04 -.950E-03
   0.391E+02 0.269E+02 -.310E+03   -.434E+02 -.299E+02 0.309E+03   0.434E+01 0.299E+01 0.145E+01   -.356E-04 -.495E-04 -.117E-02
   -.352E+02 0.291E+02 -.323E+03   0.391E+02 -.324E+02 0.325E+03   -.395E+01 0.326E+01 -.196E+01   0.422E-04 -.353E-04 -.104E-02
   -.427E+00 -.516E+00 0.266E+04   0.398E+00 0.510E+00 -.266E+04   0.357E-02 -.826E-02 -.185E+00   0.441E-04 -.509E-04 0.578E-02
   0.112E+01 0.336E+01 -.264E+04   -.116E+01 -.355E+01 0.264E+04   0.817E-01 0.619E-01 0.103E+01   0.279E-04 0.294E-04 0.848E-02
   -.147E+01 -.441E+01 -.263E+04   0.155E+01 0.451E+01 0.263E+04   -.916E-01 -.102E+00 0.896E+00   -.454E-04 -.609E-05 0.845E-02
   -.600E+01 -.935E+00 -.264E+04   0.626E+01 0.996E+00 0.264E+04   -.147E+00 0.466E-02 0.102E+01   -.297E-04 -.420E-04 0.846E-02
   0.756E+01 0.306E+01 -.259E+04   -.786E+01 -.317E+01 0.259E+04   0.136E+00 0.223E+00 0.211E+01   0.170E-04 0.242E-04 0.851E-02
   0.194E+00 -.150E-01 0.295E+04   -.177E+00 -.234E-01 -.295E+04   0.212E-01 0.546E-01 -.729E+00   -.420E-04 -.123E-03 0.586E-02
   0.110E+00 -.145E+01 -.747E+03   -.660E-01 0.146E+01 0.747E+03   -.786E-01 -.305E-01 0.421E+00   0.176E-03 0.227E-03 0.340E-01
   -.481E+01 -.242E+01 0.114E+04   0.501E+01 0.253E+01 -.114E+04   -.475E-01 0.200E-02 -.412E+00   0.105E-03 -.803E-03 0.306E-01
   0.483E+01 0.315E+01 0.114E+04   -.499E+01 -.326E+01 -.114E+04   0.495E-02 0.611E-02 -.314E+00   -.986E-04 0.215E-03 0.297E-01
   0.495E+01 0.254E+01 0.114E+04   -.513E+01 -.262E+01 -.114E+04   0.271E-01 -.757E-02 -.325E+00   0.877E-03 0.235E-03 0.304E-01
   -.497E+01 -.303E+01 0.115E+04   0.516E+01 0.314E+01 -.115E+04   -.154E-01 -.274E-01 -.284E+00   -.879E-03 0.354E-03 0.303E-01
   0.290E+00 0.549E+00 0.295E+04   -.317E+00 -.482E+00 -.295E+04   0.597E-01 -.519E-01 -.778E+00   -.571E-04 0.636E-04 0.610E-02
   -.587E+00 0.164E+00 0.295E+04   0.581E+00 -.130E+00 -.295E+04   -.137E-01 -.482E-01 -.637E+00   0.572E-04 0.115E-03 0.604E-02
   -.639E-01 0.135E+00 -.752E+03   0.288E-01 -.111E+00 0.752E+03   0.489E-01 -.296E-01 0.329E+00   -.181E-03 0.359E-03 0.340E-01
   0.177E+01 0.640E+00 -.748E+03   -.173E+01 -.669E+00 0.748E+03   -.383E-01 0.543E-01 0.389E+00   0.106E-03 -.396E-03 0.339E-01
 -----------------------------------------------------------------------------------------------
   0.881E-02 -.186E+00 -.256E+01   -.608E-13 -.910E-14 -.341E-12   -.270E-01 0.176E+00 0.225E+01   0.763E-05 -.252E-04 0.309E+00
 
 
 POSITION                                       TOTAL-FORCE (eV/Angst)
 -----------------------------------------------------------------------------------
      4.19981      4.00955     16.65060         0.001466     -0.005516      0.151523
      0.13687      0.21256     21.95765         0.010528     -0.015106      0.101472
      0.55010      0.74740     21.07344        -0.011212     -0.022906      0.091101
      5.39075      0.98339     22.67861        -0.005039     -0.014977      0.118587
      7.60061      4.42430     21.66455         0.007757      0.003303      0.067726
      3.70464      4.37556     22.35640        -0.006429     -0.003842      0.115332
      2.79061      0.00607     12.04287        -0.025221     -0.013702      1.141049
      4.20319      2.39938     18.96957         0.036260     -0.125949      0.155149
      1.42973      2.40036     18.97084        -0.015417     -0.001281     -0.060772
      5.59718      4.80466     18.97294         0.117908      0.065939      0.149931
      2.81576      4.80405     18.95732        -0.157910      0.111843      0.118311
      0.01198      0.00729     12.03974         0.038321      0.016586     -0.074826
      5.58942      1.60383     16.64875        -0.033358     -0.019306     -0.233992
      5.58077      3.21362     14.36763         0.148570      0.111038     -0.482245
      2.80153      3.21220     14.36104        -0.162407     -0.096183     -0.153998
      4.19077      0.80642     14.36110        -0.155080     -0.093302     -0.271614
      1.41167      0.80613     14.36222         0.179600      0.079974     -0.498783
      4.18149      2.41437     12.04147         0.032987      0.016214     -0.071905
      1.40024      2.41406     12.04244        -0.019421     -0.013815     -0.363368
      2.81045      1.60128     16.65643         0.014502     -0.004726      0.000435
      6.98003      4.00988     16.65107         0.003595      0.025715      0.000886
 -----------------------------------------------------------------------------------
    total drift:                               -0.018213     -0.009806     -0.000914


--------------------------------------------------------------------------------------------------------



  FREE ENERGIE OF THE ION-ELECTRON SYSTEM (eV)
  ---------------------------------------------------
  free  energy   TOTEN  =      -115.59868017 eV

  energy  without entropy=     -115.58577457  energy(sigma->0) =     -115.59437831
 


--------------------------------------------------------------------------------------------------------


    POTLOK:  cpu time    0.0263: real time    0.0263


--------------------------------------------------------------------------------------------------------


     LOOP+:  cpu time  576.8172: real time  576.9196
    4ORBIT:  cpu time    0.0000: real time    0.0000

 total amount of memory used by VASP MPI-rank0   164307. kBytes
=======================================================================

   base      :      30000. kBytes
   nonlr-proj:       2354. kBytes
   fftplans  :       2967. kBytes
   grid      :       6321. kBytes
   one-center:         93. kBytes
   wavefun   :     122572. kBytes
 
  
  
 General timing and accounting informations for this job:
 ========================================================
  
                  Total CPU time used (sec):      584.571
                            User time (sec):      582.568
                          System time (sec):        2.004
                         Elapsed time (sec):      584.817
  
                   Maximum memory used (kb):      206132.
                   Average memory used (kb):           0.
  
                          Minor page faults:        80959
                          Major page faults:            0
                 Voluntary context switches:          898
