       N       E                     dE             d eps       ncg     rms          rms(c)
DAV:   1     0.977428867043E+03    0.97743E+03   -0.56609E+04 10024   0.103E+03
DAV:   2    -0.183047311547E+02   -0.99573E+03   -0.91507E+03 12304   0.261E+02
DAV:   3    -0.947622785374E+02   -0.76458E+02   -0.68978E+02 11904   0.704E+01
DAV:   4    -0.979955105407E+02   -0.32332E+01   -0.31019E+01 13656   0.152E+01
DAV:   5    -0.980748855013E+02   -0.79375E-01   -0.79106E-01 12912   0.233E+00    0.429E+01
DAV:   6    -0.968564349691E+02    0.12185E+01   -0.21978E+01 11824   0.234E+01    0.371E+01
DAV:   7    -0.137837987207E+03   -0.40982E+02   -0.86926E+01 15536   0.734E+01    0.539E+01
DAV:   8    -0.123833841025E+03    0.14004E+02   -0.59727E+01 14072   0.456E+01    0.455E+01
DAV:   9    -0.108800486997E+03    0.15033E+02   -0.38142E+01 16600   0.435E+01    0.300E+01
DAV:  10    -0.973034643882E+02    0.11497E+02   -0.29773E+01 13992   0.317E+01    0.213E+01
DAV:  11    -0.923352125479E+02    0.49683E+01   -0.17474E+01 14464   0.196E+01    0.963E+00
DAV:  12    -0.919594038501E+02    0.37581E+00   -0.25655E+00 14064   0.790E+00    0.614E+00
DAV:  13    -0.918925212623E+02    0.66883E-01   -0.41514E-01 12888   0.334E+00    0.460E+00
DAV:  14    -0.918676487497E+02    0.24873E-01   -0.18126E-01 11240   0.261E+00    0.402E+00
DAV:  15    -0.919407476710E+02   -0.73099E-01   -0.30178E-01 12400   0.251E+00    0.396E+00
DAV:  16    -0.918299604822E+02    0.11079E+00   -0.31877E-01 11888   0.266E+00    0.159E+00
DAV:  17    -0.918034495241E+02    0.26511E-01   -0.48720E-02 13544   0.128E+00    0.622E-01
DAV:  18    -0.918015074561E+02    0.19421E-02   -0.89798E-03 12368   0.510E-01    0.487E-01
DAV:  19    -0.918007226553E+02    0.78480E-03   -0.35297E-03 12408   0.293E-01    0.391E-01
DAV:  20    -0.917994986506E+02    0.12240E-02   -0.31463E-03 12320   0.296E-01    0.289E-01
DAV:  21    -0.917989358040E+02    0.56285E-03   -0.15633E-03 11584   0.187E-01    0.117E-01
DAV:  22    -0.917989129404E+02    0.22864E-04   -0.47377E-04 12984   0.101E-01    0.125E-01
DAV:  23    -0.917987800547E+02    0.13289E-03   -0.21178E-04 12056   0.771E-02    0.408E-02
DAV:  24    -0.917987862165E+02   -0.61618E-05   -0.61559E-05  8736   0.382E-02
   1 F= -.91798734E+02 E0= -.91795401E+02  d E =-.999892E-02
