       N       E                     dE             d eps       ncg     rms          rms(c)
DAV:   1     0.102948896168E+04    0.10295E+04   -0.58319E+04 19288   0.103E+03
DAV:   2    -0.281793299215E+02   -0.10577E+04   -0.98323E+03 23936   0.260E+02
DAV:   3    -0.120359410443E+03   -0.92180E+02   -0.85206E+02 22952   0.760E+01
DAV:   4    -0.124841618887E+03   -0.44822E+01   -0.42623E+01 25840   0.169E+01
DAV:   5    -0.124982136370E+03   -0.14052E+00   -0.13913E+00 26816   0.293E+00    0.431E+01
DAV:   6    -0.119666732206E+03    0.53154E+01   -0.34532E+01 23276   0.241E+01    0.353E+01
DAV:   7    -0.172624062429E+03   -0.52957E+02   -0.23115E+02 29344   0.832E+01    0.594E+01
DAV:   8    -0.145133943351E+03    0.27490E+02   -0.10082E+02 27620   0.437E+01    0.453E+01
DAV:   9    -0.136866467185E+03    0.82675E+01   -0.63229E+01 32964   0.479E+01    0.337E+01
DAV:  10    -0.119307819158E+03    0.17559E+02   -0.49218E+01 27172   0.376E+01    0.197E+01
DAV:  11    -0.117428299522E+03    0.18795E+01   -0.27329E+01 28100   0.195E+01    0.156E+01
DAV:  12    -0.115838829547E+03    0.15895E+01   -0.10635E+01 26776   0.123E+01    0.725E+00
DAV:  13    -0.115514691107E+03    0.32414E+00   -0.76580E-01 28136   0.420E+00    0.509E+00
DAV:  14    -0.115441232990E+03    0.73458E-01   -0.11394E-01 24060   0.155E+00    0.469E+00
DAV:  15    -0.115399176024E+03    0.42057E-01   -0.77928E-02 25104   0.113E+00    0.381E+00
DAV:  16    -0.115399382701E+03   -0.20668E-03   -0.33477E-01 20716   0.279E+00    0.226E+00
DAV:  17    -0.115352635456E+03    0.46747E-01   -0.17114E-01 20940   0.184E+00    0.116E+00
DAV:  18    -0.115338174170E+03    0.14461E-01   -0.32786E-02 22476   0.783E-01    0.678E-01
DAV:  19    -0.115335108851E+03    0.30653E-02   -0.11524E-02 22040   0.487E-01    0.553E-01
DAV:  20    -0.115330702519E+03    0.44063E-02   -0.79522E-03 21200   0.394E-01    0.307E-01
DAV:  21    -0.115329575830E+03    0.11267E-02   -0.30507E-03 23788   0.256E-01    0.207E-01
DAV:  22    -0.115329415618E+03    0.16021E-03   -0.21894E-03 23816   0.198E-01    0.289E-01
DAV:  23    -0.115328671274E+03    0.74434E-03   -0.18177E-03 24360   0.179E-01    0.980E-02
DAV:  24    -0.115328613496E+03    0.57779E-04   -0.50827E-04 24340   0.996E-02    0.616E-02
DAV:  25    -0.115328611201E+03    0.22950E-05   -0.14670E-04 22592   0.545E-02    0.305E-02
DAV:  26    -0.115328726420E+03   -0.11522E-03   -0.96664E-05 20348   0.385E-02    0.304E-02
DAV:  27    -0.115328841111E+03   -0.11469E-03   -0.53971E-05 16212   0.296E-02    0.275E-02
DAV:  28    -0.115329004516E+03   -0.16341E-03   -0.55336E-05 17616   0.270E-02    0.156E-02
DAV:  29    -0.115329125563E+03   -0.12105E-03   -0.16927E-05 13836   0.175E-02    0.145E-02
DAV:  30    -0.115329265270E+03   -0.13971E-03   -0.93675E-06 12672   0.116E-02    0.130E-02
DAV:  31    -0.115329345539E+03   -0.80268E-04   -0.46762E-06 12324   0.860E-03    0.749E-03
DAV:  32    -0.115329415320E+03   -0.69781E-04   -0.41600E-06 12320   0.717E-03    0.602E-03
DAV:  33    -0.115329466052E+03   -0.50731E-04   -0.30566E-06 12296   0.600E-03    0.352E-03
DAV:  34    -0.115329486029E+03   -0.19977E-04   -0.10582E-06 11500   0.350E-03    0.348E-03
DAV:  35    -0.115329499082E+03   -0.13053E-04   -0.88421E-07 11388   0.333E-03    0.445E-03
DAV:  36    -0.115329512594E+03   -0.13512E-04   -0.82856E-07 11244   0.302E-03    0.176E-03
DAV:  37    -0.115329521912E+03   -0.93183E-05   -0.44964E-07 11252   0.237E-03
   1 F= -.11532141E+03 E0= -.11531634E+03  d E =-.151867E-01
