 vasp.5.4.4.18Apr17-6-g9f103f2a35 (build Apr 28 2017 10:53:45) complex          
  
 executed on             LinuxIFC date 2019.07.18  17:23:16
 running on   16 total cores
 distrk:  each k-point on   16 cores,    1 groups
 distr:  one band on NCORES_PER_BAND=   4 cores,    4 groups


--------------------------------------------------------------------------------------------------------


 INCAR:
 POTCAR:    PAW_PBE Au 04Oct2007                  
 POTCAR:    PAW_PBE C 08Apr2002                   
 POTCAR:    PAW_PBE H 15Jun2001                   
 POTCAR:    PAW_PBE Ir 06Sep2000                  
 POTCAR:    PAW_PBE Pt 04Feb2005                  
 POTCAR:    PAW_PBE Au 04Oct2007                  
   VRHFIN =Au: s1d10                                                            
   LEXCH  = PE                                                                  
   EATOM  =   926.0867 eV,   68.0654 Ry                                         
                                                                                
   TITEL  = PAW_PBE Au 04Oct2007                                                
   LULTRA =        F    use ultrasoft PP ?                                      
   IUNSCR =        1    unscreen: 0-lin 1-nonlin 2-no                           
   RPACOR =    2.330    partial core radius                                     
   POMASS =  196.966; ZVAL   =   11.000    mass and valenz                      
   RCORE  =    2.500    outmost cutoff radius                                   
   RWIGS  =    2.840; RWIGS  =    1.503    wigner-seitz radius (au A)           
   ENMAX  =  229.943; ENMIN  =  172.457 eV                                      
   ICORE  =        3    local potential                                         
   LCOR   =        T    correct aug charges                                     
   LPAW   =        T    paw PP                                                  
   EAUG   =  356.670                                                            
   DEXC   =    0.000                                                            
   RMAX   =    2.562    core radius for proj-oper                               
   RAUG   =    1.300    factor for augmentation sphere                          
   RDEP   =    2.598    radius for radial grids                                 
   RDEPT  =    2.193    core radius for aug-charge                              
                                                                                
   Atomic configuration                                                         
   16 entries                                                                   
     n  l   j            E        occ.                                          
     1  0  0.50    -80748.5001   2.0000                                         
     2  0  0.50    -14244.7466   2.0000                                         
     2  1  1.50    -12310.9591   6.0000                                         
     3  0  0.50     -3362.1768   2.0000                                         
     3  1  1.50     -2801.5463   6.0000                                         
     3  2  2.50     -2203.8206  10.0000                                         
     4  0  0.50      -729.8168   2.0000                                         
     4  1  1.50      -546.0527   6.0000                                         
     4  2  2.50      -325.7302  10.0000                                         
     4  3  3.50       -81.1472  14.0000                                         
     5  0  0.50      -108.3201   2.0000                                         
     5  1  1.50       -59.7479   6.0000                                         
     5  2  2.50        -6.8783  10.0000                                         
     6  0  0.50        -5.7602   1.0000                                         
     6  1  1.50        -6.8029   0.0000                                         
     5  3  2.50        -1.3606   0.0000                                         
   Description                                                                  
     l       E           TYP  RCUT    TYP  RCUT                                 
     2     -6.8782861     23  2.500                                             
     2     -8.2388687     23  2.500                                             
     0     -5.7601759     23  2.500                                             
     0     -0.8493231     23  2.500                                             
     1     -2.7211652     23  2.500                                             
     1     27.2116520     23  2.500                                             
     3     -1.3605826     23  2.500                                             
  local pseudopotential read in
  partial core-charges read in
  partial kinetic energy density read in
  atomic valenz-charges read in
  non local Contribution for L=           2  read in
    real space projection operators read in
  non local Contribution for L=           2  read in
    real space projection operators read in
  non local Contribution for L=           0  read in
    real space projection operators read in
  non local Contribution for L=           0  read in
    real space projection operators read in
  non local Contribution for L=           1  read in
    real space projection operators read in
  non local Contribution for L=           1  read in
    real space projection operators read in
    PAW grid and wavefunctions read in
 
   number of l-projection  operators is LMAX  =           6
   number of lm-projection operators is LMMAX =          18
 
 POTCAR:    PAW_PBE C 08Apr2002                   
   VRHFIN =C: s2p2                                                              
   LEXCH  = PE                                                                  
   EATOM  =   147.1560 eV,   10.8157 Ry                                         
                                                                                
   TITEL  = PAW_PBE C 08Apr2002                                                 
   LULTRA =        F    use ultrasoft PP ?                                      
   IUNSCR =        1    unscreen: 0-lin 1-nonlin 2-no                           
   RPACOR =    1.200    partial core radius                                     
   POMASS =   12.011; ZVAL   =    4.000    mass and valenz                      
   RCORE  =    1.500    outmost cutoff radius                                   
   RWIGS  =    1.630; RWIGS  =    0.863    wigner-seitz radius (au A)           
   ENMAX  =  400.000; ENMIN  =  300.000 eV                                      
   ICORE  =        2    local potential                                         
   LCOR   =        T    correct aug charges                                     
   LPAW   =        T    paw PP                                                  
   EAUG   =  644.873                                                            
   DEXC   =    0.000                                                            
   RMAX   =    1.529    core radius for proj-oper                               
   RAUG   =    1.300    factor for augmentation sphere                          
   RDEP   =    1.501    radius for radial grids                                 
   RDEPT  =    1.300    core radius for aug-charge                              
                                                                                
   Atomic configuration                                                         
    4 entries                                                                   
     n  l   j            E        occ.                                          
     1  0  0.50      -273.3789   2.0000                                         
     2  0  0.50       -13.7508   2.0000                                         
     2  1  0.50        -5.2854   2.0000                                         
     3  2  1.50        -5.4423   0.0000                                         
   Description                                                                  
     l       E           TYP  RCUT    TYP  RCUT                                 
     0    -13.7508458     23  1.200                                             
     0     -8.2022199     23  1.200                                             
     1     -5.2854383     23  1.500                                             
     1     34.0145650     23  1.500                                             
     2     -5.4423304      7  1.500                                             
  local pseudopotential read in
  partial core-charges read in
  partial kinetic energy density read in
  atomic valenz-charges read in
  non local Contribution for L=           0  read in
    real space projection operators read in
  non local Contribution for L=           0  read in
    real space projection operators read in
  non local Contribution for L=           1  read in
    real space projection operators read in
  non local Contribution for L=           1  read in
    real space projection operators read in
    PAW grid and wavefunctions read in
 
   number of l-projection  operators is LMAX  =           4
   number of lm-projection operators is LMMAX =           8
 
 POTCAR:    PAW_PBE H 15Jun2001                   
   VRHFIN =H: ultrasoft test                                                    
   LEXCH  = PE                                                                  
   EATOM  =    12.4884 eV,    0.9179 Ry                                         
                                                                                
   TITEL  = PAW_PBE H 15Jun2001                                                 
   LULTRA =        F    use ultrasoft PP ?                                      
   IUNSCR =        0    unscreen: 0-lin 1-nonlin 2-no                           
   RPACOR =    0.000    partial core radius                                     
   POMASS =    1.000; ZVAL   =    1.000    mass and valenz                      
   RCORE  =    1.100    outmost cutoff radius                                   
   RWIGS  =    0.700; RWIGS  =    0.370    wigner-seitz radius (au A)           
   ENMAX  =  250.000; ENMIN  =  200.000 eV                                      
   RCLOC  =    0.701    cutoff for local pot                                    
   LCOR   =        T    correct aug charges                                     
   LPAW   =        T    paw PP                                                  
   EAUG   =  400.000                                                            
   RMAX   =    1.123    core radius for proj-oper                               
   RAUG   =    1.200    factor for augmentation sphere                          
   RDEP   =    1.112    radius for radial grids                                 
   RDEPT  =    0.926    core radius for aug-charge                              
                                                                                
   Atomic configuration                                                         
    2 entries                                                                   
     n  l   j            E        occ.                                          
     1  0  0.50        -6.4927   1.0000                                         
     2  1  0.50        -3.4015   0.0000                                         
   Description                                                                  
     l       E           TYP  RCUT    TYP  RCUT                                 
     0     -6.4927494     23  1.100                                             
     0      6.8029130     23  1.100                                             
     1     -4.0817478     23  1.100                                             
  local pseudopotential read in
  atomic valenz-charges read in
  non local Contribution for L=           0  read in
    real space projection operators read in
  non local Contribution for L=           0  read in
    real space projection operators read in
  non local Contribution for L=           1  read in
    real space projection operators read in
    PAW grid and wavefunctions read in
 
   number of l-projection  operators is LMAX  =           3
   number of lm-projection operators is LMMAX =           5
 
 POTCAR:    PAW_PBE Ir 06Sep2000                  
   VRHFIN =Ir: s1d8                                                             
   LEXCH  = PE                                                                  
   EATOM  =   560.1833 eV,   41.1723 Ry                                         
                                                                                
   TITEL  = PAW_PBE Ir 06Sep2000                                                
   LULTRA =        F    use ultrasoft PP ?                                      
   IUNSCR =        1    unscreen: 0-lin 1-nonlin 2-no                           
   RPACOR =    2.250    partial core radius                                     
   POMASS =  192.220; ZVAL   =    9.000    mass and valenz                      
   RCORE  =    2.600    outmost cutoff radius                                   
   RWIGS  =    2.690; RWIGS  =    1.423    wigner-seitz radius (au A)           
   ENMAX  =  210.864; ENMIN  =  158.148 eV                                      
   RCLOC  =    1.857    cutoff for local pot                                    
   LCOR   =        T    correct aug charges                                     
   LPAW   =        T    paw PP                                                  
   EAUG   =  318.962                                                            
   DEXC   =    0.000                                                            
   RMAX   =    2.667    core radius for proj-oper                               
   RAUG   =    1.300    factor for augmentation sphere                          
   RDEP   =    2.748    radius for radial grids                                 
   RDEPT  =    2.300    core radius for aug-charge                              
                                                                                
   Atomic configuration                                                         
   16 entries                                                                   
     n  l   j            E        occ.                                          
     1  0  0.50    -76100.0449   2.0000                                         
     2  0  0.50    -13308.1683   2.0000                                         
     2  1  1.50    -11558.0021   6.0000                                         
     3  0  0.50     -3110.7274   2.0000                                         
     3  1  1.50     -2599.2109   6.0000                                         
     3  2  2.50     -2037.1515  10.0000                                         
     4  0  0.50      -661.6001   2.0000                                         
     4  1  1.50      -493.8981   6.0000                                         
     4  2  2.50      -288.1909  10.0000                                         
     4  3  3.50       -59.5718  14.0000                                         
     5  0  0.50       -95.3879   2.0000                                         
     5  1  1.50       -52.2747   6.0000                                         
     5  2  2.50        -5.4180   8.0000                                         
     6  0  0.50        -5.5479   1.0000                                         
     6  1  1.50        -6.8029   0.0000                                         
     5  3  2.50        -1.3606   0.0000                                         
   Description                                                                  
     l       E           TYP  RCUT    TYP  RCUT                                 
     2     -5.4179967     23  2.600                                             
     2     -6.7785793     23  2.600                                             
     0     -5.5478636     23  2.600                                             
     0      2.2542272     23  2.600                                             
     1     -2.7211652     23  2.600                                             
     1     20.4087390     23  2.600                                             
  local pseudopotential read in
  partial core-charges read in
  partial kinetic energy density read in
  atomic valenz-charges read in
  non local Contribution for L=           2  read in
    real space projection operators read in
  non local Contribution for L=           2  read in
    real space projection operators read in
  non local Contribution for L=           0  read in
    real space projection operators read in
  non local Contribution for L=           0  read in
    real space projection operators read in
  non local Contribution for L=           1  read in
    real space projection operators read in
  non local Contribution for L=           1  read in
    real space projection operators read in
    PAW grid and wavefunctions read in
 
   number of l-projection  operators is LMAX  =           6
   number of lm-projection operators is LMMAX =          18
 
 POTCAR:    PAW_PBE Pt 04Feb2005                  
   VRHFIN =Pt: s1d9                                                             
   LEXCH  = PE                                                                  
   EATOM  =   729.1176 eV,   53.5886 Ry                                         
                                                                                
   TITEL  = PAW_PBE Pt 04Feb2005                                                
   LULTRA =        F    use ultrasoft PP ?                                      
   IUNSCR =        1    unscreen: 0-lin 1-nonlin 2-no                           
   RPACOR =    2.330    partial core radius                                     
   POMASS =  195.080; ZVAL   =   10.000    mass and valenz                      
   RCORE  =    2.600    outmost cutoff radius                                   
   RWIGS  =    2.750; RWIGS  =    1.455    wigner-seitz radius (au A)           
   ENMAX  =  230.283; ENMIN  =  172.712 eV                                      
   ICORE  =        3    local potential                                         
   LCOR   =        T    correct aug charges                                     
   LPAW   =        T    paw PP                                                  
   EAUG   =  358.966                                                            
   DEXC   =    0.000                                                            
   RMAX   =    2.658    core radius for proj-oper                               
   RAUG   =    1.300    factor for augmentation sphere                          
   RDEP   =    2.761    radius for radial grids                                 
   RDEPT  =    2.203    core radius for aug-charge                              
                                                                                
   Atomic configuration                                                         
   16 entries                                                                   
     n  l   j            E        occ.                                          
     1  0  0.50    -78401.1885   2.0000                                         
     2  0  0.50    -13770.7750   2.0000                                         
     2  1  1.50    -11931.0468   6.0000                                         
     3  0  0.50     -3234.7234   2.0000                                         
     3  1  1.50     -2699.2216   6.0000                                         
     3  2  2.50     -2119.5714  10.0000                                         
     4  0  0.50      -695.1528   2.0000                                         
     4  1  1.50      -519.6034   6.0000                                         
     4  2  2.50      -306.6786  10.0000                                         
     4  3  3.50       -70.1041  14.0000                                         
     5  0  0.50      -101.7747   2.0000                                         
     5  1  1.50       -55.9873   6.0000                                         
     5  2  2.50        -6.1423   9.0000                                         
     6  0  0.50        -5.6573   1.0000                                         
     6  1  1.50        -6.8029   0.0000                                         
     5  3  2.50        -1.3606   0.0000                                         
   Description                                                                  
     l       E           TYP  RCUT    TYP  RCUT                                 
     2     -6.1423404     23  2.500                                             
     2     -7.5029230     23  2.500                                             
     0     -5.6573207     23  2.500                                             
     0      0.7416693     23  2.500                                             
     1     -2.7211652     23  2.600                                             
     1     20.4087390     23  2.600                                             
     3     -1.3605826     23  2.500                                             
  local pseudopotential read in
  partial core-charges read in
  partial kinetic energy density read in
  atomic valenz-charges read in
  non local Contribution for L=           2  read in
    real space projection operators read in
  non local Contribution for L=           2  read in
    real space projection operators read in
  non local Contribution for L=           0  read in
    real space projection operators read in
  non local Contribution for L=           0  read in
    real space projection operators read in
  non local Contribution for L=           1  read in
    real space projection operators read in
  non local Contribution for L=           1  read in
    real space projection operators read in
    PAW grid and wavefunctions read in
 
   number of l-projection  operators is LMAX  =           6
   number of lm-projection operators is LMMAX =          18
 
 Optimization of the real space projectors (new method)

 maximal supplied QI-value         = 15.12
 optimisation between [QCUT,QGAM] = [  9.52, 19.05] = [ 25.40,101.61] Ry 
 Optimized for a Real-space Cutoff    1.57 Angstroem

   l    n(q)    QCUT    max X(q) W(low)/X(q) W(high)/X(q)  e(spline) 
   2      8     9.524    60.898    0.38E-03    0.43E-04    0.84E-07
   2      8     9.524    58.894    0.38E-03    0.47E-04    0.88E-07
   0      9     9.524   109.617    0.60E-04    0.64E-04    0.80E-07
   0      9     9.524    75.026    0.59E-04    0.62E-04    0.78E-07
   1      8     9.524    16.344    0.99E-04    0.18E-03    0.87E-07
   1      8     9.524    10.160    0.78E-04    0.15E-03    0.74E-07
 Optimization of the real space projectors (new method)

 maximal supplied QI-value         = 25.13
 optimisation between [QCUT,QGAM] = [  9.55, 19.10] = [ 25.54,102.17] Ry 
 Optimized for a Real-space Cutoff    1.39 Angstroem

   l    n(q)    QCUT    max X(q) W(low)/X(q) W(high)/X(q)  e(spline) 
   0      8     9.551   115.676    0.39E-03    0.54E-03    0.29E-06
   0      8     9.551    87.132    0.39E-03    0.54E-03    0.28E-06
   1      7     9.551     4.429    0.35E-03    0.51E-04    0.29E-06
   1      7     9.551     2.733    0.22E-03    0.42E-04    0.31E-06
 Optimization of the real space projectors (new method)

 maximal supplied QI-value         = 34.20
 optimisation between [QCUT,QGAM] = [  9.58, 19.15] = [ 25.68,102.74] Ry 
 Optimized for a Real-space Cutoff    1.31 Angstroem

   l    n(q)    QCUT    max X(q) W(low)/X(q) W(high)/X(q)  e(spline) 
   0      7     9.577    19.460    0.33E-03    0.12E-03    0.35E-06
   0      7     9.577    12.209    0.33E-03    0.11E-03    0.33E-06
   1      7     9.577     4.655    0.39E-03    0.14E-02    0.33E-06
 Optimization of the real space projectors (new method)

 maximal supplied QI-value         = 14.36
 optimisation between [QCUT,QGAM] = [  9.48, 19.10] = [ 25.16,102.17] Ry 
 Optimized for a Real-space Cutoff    1.57 Angstroem

   l    n(q)    QCUT    max X(q) W(low)/X(q) W(high)/X(q)  e(spline) 
   2      8     9.479   134.116    0.18E-03    0.75E-03    0.26E-06
   2      8     9.479   130.192    0.18E-03    0.75E-03    0.27E-06
   0      9     9.479    60.310    0.39E-03    0.24E-03    0.63E-07
   0      9     9.479    39.218    0.36E-03    0.22E-03    0.59E-07
   1      8     9.479    18.439    0.20E-03    0.15E-03    0.16E-06
   1      8     9.479    12.760    0.16E-03    0.11E-03    0.13E-06
 Optimization of the real space projectors (new method)

 maximal supplied QI-value         = 14.36
 optimisation between [QCUT,QGAM] = [  9.48, 19.10] = [ 25.16,102.17] Ry 
 Optimized for a Real-space Cutoff    1.57 Angstroem

   l    n(q)    QCUT    max X(q) W(low)/X(q) W(high)/X(q)  e(spline) 
   2      8     9.479    66.195    0.35E-03    0.53E-04    0.87E-07
   2      8     9.479    64.643    0.35E-03    0.57E-04    0.91E-07
   0      9     9.479    95.520    0.50E-04    0.62E-04    0.81E-07
   0      9     9.479    63.403    0.49E-04    0.60E-04    0.78E-07
   1      8     9.479    19.961    0.10E-03    0.87E-04    0.11E-06
   1      8     9.479    13.289    0.88E-04    0.71E-04    0.97E-07
  PAW_PBE Au 04Oct2007                  :
 energy of atom  1       EATOM= -926.0867
 kinetic energy error for atom=    0.0152 (will be added to EATOM!!)
  PAW_PBE C 08Apr2002                   :
 energy of atom  2       EATOM= -147.1560
 kinetic energy error for atom=    0.0854 (will be added to EATOM!!)
  PAW_PBE H 15Jun2001                   :
 energy of atom  3       EATOM=  -12.4884
 kinetic energy error for atom=    0.0203 (will be added to EATOM!!)
  PAW_PBE Ir 06Sep2000                  :
 energy of atom  4       EATOM= -560.1833
 kinetic energy error for atom=    0.0056 (will be added to EATOM!!)
  PAW_PBE Pt 04Feb2005                  :
 energy of atom  5       EATOM= -729.1176
 kinetic energy error for atom=    0.0144 (will be added to EATOM!!)
 
 
 POSCAR: Au  C  H Ir Pt                          
  positions in cartesian coordinates
  No initial velocities read in
 exchange correlation table for  LEXCH =        8
   RHO(1)=    0.500       N(1)  =     2000
   RHO(2)=  100.500       N(2)  =     4000
 


--------------------------------------------------------------------------------------------------------


 ion  position               nearest neighbor table
   1  0.841  0.834  0.543-  13 2.77  10 2.77  11 2.78  11 2.78  10 2.78  13 2.79  14 2.79   8 2.79
                             9 2.80  20 2.81  15 2.81  16 2.83
   2  0.004  0.038  0.705-   5 1.10   3 1.10   4 1.10   6 1.15  14 2.68
   3  0.879  0.215  0.726-   2 1.10
   4  0.902  0.914  0.701-   2 1.10
   5  0.219  0.908  0.716-   2 1.10
   6  0.014  0.153  0.674-   2 1.15  14 1.96
   7  0.502  0.003  0.393-  18 2.78  19 2.78  21 2.78  21 2.78  19 2.78  18 2.78  12 2.81  20 2.82
                             9 2.82
   8  0.171  0.669  0.469-   9 2.78  20 2.78  12 2.78  12 2.78  20 2.78   9 2.78  13 2.79   1 2.79
                            11 2.81  18 2.82  21 2.82  19 2.83
   9  0.671  0.670  0.469-  20 2.78   8 2.78  12 2.78  12 2.78   8 2.78  20 2.78  13 2.78  10 2.79
                             1 2.80  19 2.82   7 2.82  18 2.84
  10  0.839  0.334  0.543-   1 2.77  11 2.78  13 2.78  13 2.78  11 2.78   1 2.78  12 2.78  20 2.79
                             9 2.79  16 2.81  17 2.82  14 2.85
  11  0.340  0.333  0.543-  13 2.77  10 2.78   1 2.78   1 2.78  10 2.78  13 2.78  17 2.79  12 2.79
                            20 2.79   8 2.81  16 2.82  15 2.82
  12  0.171  0.169  0.469-  20 2.78   9 2.78   8 2.78   8 2.78   9 2.78  20 2.78  10 2.78  11 2.79
                            13 2.80   7 2.81  19 2.82  21 2.83
  13  0.339  0.834  0.543-   1 2.77  11 2.77  10 2.78  10 2.78  11 2.78   9 2.78   8 2.79   1 2.79
                            12 2.80  15 2.80  17 2.82  14 2.83
  14  0.004  0.994  0.618-   6 1.96   2 2.68  16 2.76  15 2.77  17 2.77  17 2.79   1 2.79  15 2.79
                            16 2.79  13 2.83  10 2.85
  15  0.506  0.996  0.618-  14 2.77  16 2.78  17 2.78  17 2.78  16 2.78  14 2.79  13 2.80   1 2.81
                            11 2.82
  16  0.006  0.496  0.618-  14 2.76  17 2.77  15 2.78  15 2.78  17 2.79  14 2.79  10 2.81  11 2.82
                             1 2.83
  17  0.504  0.497  0.618-  16 2.77  14 2.77  15 2.78  15 2.78  14 2.79  16 2.79  11 2.79  10 2.82
                            13 2.82
  18  0.502  0.503  0.393-   7 2.78  19 2.78  21 2.78  21 2.78  19 2.78   7 2.78   8 2.82  20 2.82
                             9 2.84
  19  0.002  0.503  0.393-   7 2.78  18 2.78  21 2.78  21 2.78  18 2.78   7 2.78   9 2.82  12 2.82
                             8 2.83
  20  0.671  0.170  0.468-   9 2.78  12 2.78   8 2.78   8 2.78  12 2.78   9 2.78  10 2.79  11 2.79
                             1 2.81  21 2.82   7 2.82  18 2.82
  21  0.002  0.003  0.393-   7 2.78  19 2.78  18 2.78  18 2.78  19 2.78   7 2.78  20 2.82   8 2.82
                            12 2.83
 
  LATTYP: Found a hexagonal cell.
 ALAT       =     5.5578593001
 C/A-ratio  =     5.5429542221
  
  Lattice vectors:
  
 A1 = (   2.7789296501,  -4.8132473446,   0.0000000000)
 A2 = (  -5.5578593001,   0.0000000000,   0.0000000000)
 A3 = (   0.0000000000,   0.0000000000, -30.8069596737)


Analysis of symmetry for initial positions (statically):
=====================================================================
 Subroutine PRICEL returns:
 Original cell was already a primitive cell.
 

 Routine SETGRP: Setting up the symmetry group for a 
 hexagonal supercell.


 Subroutine GETGRP returns: Found  1 space group operations
 (whereof  1 operations were pure point group operations)
 out of a pool of 24 trial point group operations.


The static configuration has the point symmetry C_1 .


Analysis of symmetry for dynamics (positions and initial velocities):
=====================================================================
 Subroutine PRICEL returns:
 Original cell was already a primitive cell.
 

 Routine SETGRP: Setting up the symmetry group for a 
 hexagonal supercell.


 Subroutine GETGRP returns: Found  1 space group operations
 (whereof  1 operations were pure point group operations)
 out of a pool of 24 trial point group operations.


The dynamic configuration has the point symmetry C_1 .


 Subroutine INISYM returns: Found  1 space group operations
 (whereof  1 operations are pure point group operations),
 and found     1 'primitive' translations

 
 
 KPOINTS: 0.5.Ir1.Au10                            

Automatic generation of k-mesh.
Space group operators:
 irot       det(A)        alpha          n_x          n_y          n_z        tau_x        tau_y        tau_z
    1     1.000000     0.000001     1.000000     0.000000     0.000000     0.000000     0.000000     0.000000
 
 Subroutine IBZKPT returns following result:
 ===========================================
 
 Found     96 irreducible k-points:
 
 Following reciprocal coordinates:
            Coordinates               Weight
  0.062500  0.062500  0.000000     16.000000
  0.000000  0.062500  0.000000     16.000000
 -0.062500  0.000000  0.000000     16.000000
  0.187500  0.062500  0.000000     16.000000
  0.125000  0.187500  0.000000     16.000000
 -0.062500  0.125000  0.000000     16.000000
  0.125000 -0.062500  0.000000     16.000000
 -0.062500 -0.187500  0.000000     16.000000
 -0.187500 -0.125000  0.000000     16.000000
  0.312500  0.062500  0.000000     16.000000
  0.250000  0.312500  0.000000     16.000000
 -0.062500  0.250000  0.000000     16.000000
  0.250000 -0.062500  0.000000     16.000000
 -0.062500 -0.312500  0.000000     16.000000
 -0.312500 -0.250000  0.000000     16.000000
  0.437500  0.062500  0.000000     16.000000
  0.375000  0.437500  0.000000     16.000000
 -0.062500  0.375000  0.000000     16.000000
  0.375000 -0.062500  0.000000     16.000000
 -0.062500 -0.437500  0.000000     16.000000
 -0.437500 -0.375000  0.000000     16.000000
 -0.437500  0.062500  0.000000     16.000000
  0.500000 -0.437500  0.000000     16.000000
 -0.062500  0.500000  0.000000     16.000000
  0.500000 -0.062500  0.000000     16.000000
 -0.062500  0.437500  0.000000     16.000000
  0.437500  0.500000  0.000000     16.000000
 -0.312500  0.062500  0.000000     16.000000
 -0.375000 -0.312500  0.000000     16.000000
 -0.062500 -0.375000  0.000000     16.000000
 -0.375000 -0.062500  0.000000     16.000000
 -0.062500  0.312500  0.000000     16.000000
  0.312500  0.375000  0.000000     16.000000
 -0.187500  0.062500  0.000000     16.000000
 -0.250000 -0.187500  0.000000     16.000000
 -0.062500 -0.250000  0.000000     16.000000
 -0.250000 -0.062500  0.000000     16.000000
 -0.062500  0.187500  0.000000     16.000000
  0.187500  0.250000  0.000000     16.000000
 -0.062500  0.062500  0.000000     16.000000
 -0.125000 -0.062500  0.000000     16.000000
 -0.062500 -0.125000  0.000000     16.000000
  0.187500  0.187500  0.000000     16.000000
  0.000000  0.187500  0.000000     16.000000
 -0.187500  0.000000  0.000000     16.000000
  0.312500  0.187500  0.000000     16.000000
  0.125000  0.312500  0.000000     16.000000
 -0.187500  0.125000  0.000000     16.000000
  0.125000 -0.187500  0.000000     16.000000
 -0.187500 -0.312500  0.000000     16.000000
 -0.312500 -0.125000  0.000000     16.000000
  0.437500  0.187500  0.000000     16.000000
  0.250000  0.437500  0.000000     16.000000
 -0.187500  0.250000  0.000000     16.000000
  0.250000 -0.187500  0.000000     16.000000
 -0.187500 -0.437500  0.000000     16.000000
 -0.437500 -0.250000  0.000000     16.000000
 -0.437500  0.187500  0.000000     16.000000
  0.375000 -0.437500  0.000000     16.000000
 -0.187500  0.375000  0.000000     16.000000
  0.375000 -0.187500  0.000000     16.000000
 -0.187500  0.437500  0.000000     16.000000
  0.437500 -0.375000  0.000000     16.000000
 -0.312500  0.187500  0.000000     16.000000
  0.500000 -0.312500  0.000000     16.000000
 -0.187500  0.500000  0.000000     16.000000
  0.500000 -0.187500  0.000000     16.000000
 -0.187500  0.312500  0.000000     16.000000
  0.312500  0.500000  0.000000     16.000000
 -0.187500  0.187500  0.000000     16.000000
 -0.375000 -0.187500  0.000000     16.000000
 -0.187500 -0.375000  0.000000     16.000000
  0.312500  0.312500  0.000000     16.000000
  0.000000  0.312500  0.000000     16.000000
 -0.312500  0.000000  0.000000     16.000000
  0.437500  0.312500  0.000000     16.000000
  0.125000  0.437500  0.000000     16.000000
 -0.312500  0.125000  0.000000     16.000000
  0.125000 -0.312500  0.000000     16.000000
 -0.312500 -0.437500  0.000000     16.000000
 -0.437500 -0.125000  0.000000     16.000000
 -0.437500  0.312500  0.000000     16.000000
  0.250000 -0.437500  0.000000     16.000000
 -0.312500  0.250000  0.000000     16.000000
  0.250000 -0.312500  0.000000     16.000000
 -0.312500  0.437500  0.000000     16.000000
  0.437500 -0.250000  0.000000     16.000000
 -0.312500  0.312500  0.000000     16.000000
  0.375000 -0.312500  0.000000     16.000000
 -0.312500  0.375000  0.000000     16.000000
  0.437500  0.437500  0.000000     16.000000
  0.000000  0.437500  0.000000     16.000000
 -0.437500 -0.000000  0.000000     16.000000
 -0.437500  0.437500  0.000000     16.000000
  0.125000 -0.437500  0.000000     16.000000
 -0.437500  0.125000  0.000000     16.000000
 
 Following cartesian coordinates:
            Coordinates               Weight
  0.011245  0.006492  0.000000     16.000000
  0.000000  0.012985  0.000000     16.000000
 -0.011245  0.006492  0.000000     16.000000
  0.033736 -0.006492  0.000000     16.000000
  0.022491  0.025970  0.000000     16.000000
 -0.011245  0.032462  0.000000     16.000000
  0.022491 -0.025970  0.000000     16.000000
 -0.011245 -0.032462  0.000000     16.000000
 -0.033736 -0.006492  0.000000     16.000000
  0.056227 -0.019477  0.000000     16.000000
  0.044981  0.038955  0.000000     16.000000
 -0.011245  0.058432  0.000000     16.000000
  0.044981 -0.038955  0.000000     16.000000
 -0.011245 -0.058432  0.000000     16.000000
 -0.056227 -0.019477  0.000000     16.000000
  0.078717 -0.032462  0.000000     16.000000
  0.067472  0.051940  0.000000     16.000000
 -0.011245  0.084402  0.000000     16.000000
  0.067472 -0.051940  0.000000     16.000000
 -0.011245 -0.084402  0.000000     16.000000
 -0.078717 -0.032462  0.000000     16.000000
 -0.078717  0.058432  0.000000     16.000000
  0.089963 -0.142835  0.000000     16.000000
 -0.011245  0.110372  0.000000     16.000000
  0.089963 -0.064925  0.000000     16.000000
 -0.011245  0.097387  0.000000     16.000000
  0.078717  0.058432  0.000000     16.000000
 -0.056227  0.045447  0.000000     16.000000
 -0.067472 -0.025970  0.000000     16.000000
 -0.011245 -0.071417  0.000000     16.000000
 -0.067472  0.025970  0.000000     16.000000
 -0.011245  0.071417  0.000000     16.000000
  0.056227  0.045447  0.000000     16.000000
 -0.033736  0.032462  0.000000     16.000000
 -0.044981 -0.012985  0.000000     16.000000
 -0.011245 -0.045447  0.000000     16.000000
 -0.044981  0.012985  0.000000     16.000000
 -0.011245  0.045447  0.000000     16.000000
  0.033736  0.032462  0.000000     16.000000
 -0.011245  0.019477  0.000000     16.000000
 -0.022491  0.000000  0.000000     16.000000
 -0.011245 -0.019477  0.000000     16.000000
  0.033736  0.019477  0.000000     16.000000
  0.000000  0.038955  0.000000     16.000000
 -0.033736  0.019477  0.000000     16.000000
  0.056227  0.006492  0.000000     16.000000
  0.022491  0.051940  0.000000     16.000000
 -0.033736  0.045447  0.000000     16.000000
  0.022491 -0.051940  0.000000     16.000000
 -0.033736 -0.045447  0.000000     16.000000
 -0.056227  0.006492  0.000000     16.000000
  0.078717 -0.006492  0.000000     16.000000
  0.044981  0.064925  0.000000     16.000000
 -0.033736  0.071417  0.000000     16.000000
  0.044981 -0.064925  0.000000     16.000000
 -0.033736 -0.071417  0.000000     16.000000
 -0.078717 -0.006492  0.000000     16.000000
 -0.078717  0.084402  0.000000     16.000000
  0.067472 -0.129850  0.000000     16.000000
 -0.033736  0.097387  0.000000     16.000000
  0.067472 -0.077910  0.000000     16.000000
 -0.033736  0.110372  0.000000     16.000000
  0.078717 -0.123357  0.000000     16.000000
 -0.056227  0.071417  0.000000     16.000000
  0.089963 -0.116865  0.000000     16.000000
 -0.033736  0.123357  0.000000     16.000000
  0.089963 -0.090895  0.000000     16.000000
 -0.033736  0.084402  0.000000     16.000000
  0.056227  0.071417  0.000000     16.000000
 -0.033736  0.058432  0.000000     16.000000
 -0.067472  0.000000  0.000000     16.000000
 -0.033736 -0.058432  0.000000     16.000000
  0.056227  0.032462  0.000000     16.000000
  0.000000  0.064925  0.000000     16.000000
 -0.056227  0.032462  0.000000     16.000000
  0.078717  0.019477  0.000000     16.000000
  0.022491  0.077910  0.000000     16.000000
 -0.056227  0.058432  0.000000     16.000000
  0.022491 -0.077910  0.000000     16.000000
 -0.056227 -0.058432  0.000000     16.000000
 -0.078717  0.019477  0.000000     16.000000
 -0.078717  0.110372  0.000000     16.000000
  0.044981 -0.116865  0.000000     16.000000
 -0.056227  0.084402  0.000000     16.000000
  0.044981 -0.090895  0.000000     16.000000
 -0.056227  0.123357  0.000000     16.000000
  0.078717 -0.097387  0.000000     16.000000
 -0.056227  0.097387  0.000000     16.000000
  0.067472 -0.103880  0.000000     16.000000
 -0.056227  0.110372  0.000000     16.000000
  0.078717  0.045447  0.000000     16.000000
  0.000000  0.090895  0.000000     16.000000
 -0.078717  0.045447  0.000000     16.000000
 -0.078717  0.136342  0.000000     16.000000
  0.022491 -0.103880  0.000000     16.000000
 -0.078717  0.071417  0.000000     16.000000
 


--------------------------------------------------------------------------------------------------------




 Dimension of arrays:
   k-points           NKPTS =     96   k-points in BZ     NKDIM =     96   number of bands    NBANDS=    100
   number of dos      NEDOS =    301   number of ions     NIONS =     21
   non local maximal  LDIM  =      6   non local SUM 2l+1 LMDIM =     18
   total plane-waves  NPLWV = 112896
   max r-space proj   IRMAX =   2252   max aug-charges    IRDMAX=  10104
   dimension x,y,z NGX =    28 NGY =   28 NGZ =  144
   dimension x,y,z NGXF=    56 NGYF=   56 NGZF=  288
   support grid    NGXF=    56 NGYF=   56 NGZF=  288
   ions per type =               1   1   4   1  14
   NGX,Y,Z   is equivalent  to a cutoff of   8.38,  8.38,  7.77 a.u.
   NGXF,Y,Z  is equivalent  to a cutoff of  16.75, 16.75, 15.54 a.u.

 SYSTEM =  0.5.Ir1.Au10                            
 POSCAR =  Au  C  H Ir Pt                          

 Startparameter for this run:
   NWRITE =      2    write-flag & timer
   PREC   = normal    normal or accurate (medium, high low for compatibility)
   ISTART =      0    job   : 0-new  1-cont  2-samecut
   ICHARG =      2    charge: 1-file 2-atom 10-const
   ISPIN  =      1    spin polarized calculation?
   LNONCOLLINEAR =      F non collinear calculations
   LSORBIT =      F    spin-orbit coupling
   INIWAV =      1    electr: 0-lowe 1-rand  2-diag
   LASPH  =      F    aspherical Exc in radial PAW
   METAGGA=      F    non-selfconsistent MetaGGA calc.

 Electronic Relaxation 1
   ENCUT  =  350.0 eV  25.72 Ry    5.07 a.u.   8.48  8.48 46.99*2*pi/ulx,y,z
   ENINI  =  350.0     initial cutoff
   ENAUG  =  644.9 eV  augmentation charge cutoff
   NELM   =   1000;   NELMIN=  5; NELMDL= -5     # of ELM steps 
   EDIFF  = 0.1E-04   stopping-criterion for ELM
   LREAL  =      T    real-space projection
   NLSPLINE    = F    spline interpolate recip. space projectors
   LCOMPAT=      F    compatible to vasp.4.4
   GGA_COMPAT  = T    GGA compatible to vasp.4.4-vasp.4.6
   LMAXPAW     = -100 max onsite density
   LMAXMIX     =    2 max onsite mixed and CHGCAR
   VOSKOWN=      0    Vosko Wilk Nusair interpolation
   ROPT   =   -0.00050  -0.00050  -0.00050  -0.00050
   ROPT   =   -0.00050
 Ionic relaxation
   EDIFFG = 0.1E-03   stopping-criterion for IOM
   NSW    =      0    number of steps for IOM
   NBLOCK =      1;   KBLOCK =      1    inner block; outer block 
   IBRION =     -1    ionic relax: 0-MD 1-quasi-New 2-CG
   NFREE  =      0    steps in history (QN), initial steepest desc. (CG)
   ISIF   =      2    stress and relaxation
   IWAVPR =     10    prediction:  0-non 1-charg 2-wave 3-comb
   ISYM   =      2    0-nonsym 1-usesym 2-fastsym
   LCORR  =      T    Harris-Foulkes like correction to forces

   POTIM  = 0.5000    time-step for ionic-motion
   TEIN   =    0.0    initial temperature
   TEBEG  =    0.0;   TEEND  =   0.0 temperature during run
   SMASS  =  -3.00    Nose mass-parameter (am)
   estimated Nose-frequenzy (Omega)   =  0.10E-29 period in steps =****** mass=  -0.706E-27a.u.
   SCALEE = 1.0000    scale energy and forces
   NPACO  =    256;   APACO  = 16.0  distance and # of slots for P.C.
   PSTRESS=    0.0 pullay stress

  Mass of Ions in am
   POMASS = 196.97 12.01  1.00192.22195.08
  Ionic Valenz
   ZVAL   =  11.00  4.00  1.00  9.00 10.00
  Atomic Wigner-Seitz radii
   RWIGS  =  -1.00 -1.00 -1.00 -1.00 -1.00
  virtual crystal weights 
   VCA    =   1.00  1.00  1.00  1.00  1.00
   NELECT =     168.0000    total number of electrons
   NUPDOWN=      -1.0000    fix difference up-down

 DOS related values:
   EMIN   =  10.00;   EMAX   =-10.00  energy-range for DOS
   EFERMI =   0.00
   ISMEAR =     1;   SIGMA  =   0.20  broadening in eV -4-tet -1-fermi 0-gaus

 Electronic relaxation 2 (details)
   IALGO  =     38    algorithm
   LDIAG  =      T    sub-space diagonalisation (order eigenvalues)
   LSUBROT=      F    optimize rotation matrix (better conditioning)
   TURBO    =      0    0=normal 1=particle mesh
   IRESTART =      0    0=no restart 2=restart with 2 vectors
   NREBOOT  =      0    no. of reboots
   NMIN     =      0    reboot dimension
   EREF     =   0.00    reference energy to select bands
   IMIX   =      4    mixing-type and parameters
     AMIX     =   0.40;   BMIX     =  1.00
     AMIX_MAG =   1.60;   BMIX_MAG =  1.00
     AMIN     =   0.10
     WC   =   100.;   INIMIX=   1;  MIXPRE=   1;  MAXMIX= -45

 Intra band minimization:
   WEIMIN = 0.0000     energy-eigenvalue tresh-hold
   EBREAK =  0.25E-07  absolut break condition
   DEPER  =   0.30     relativ break condition  

   TIME   =   0.40     timestep for ELM

  volume/ion in A,a.u.               =      39.24       264.83
  Fermi-wavevector in a.u.,A,eV,Ry     =   0.963488  1.820729 12.630418  0.928310
  Thomas-Fermi vector in A             =   2.093038
 
 Write flags
   LWAVE        =      F    write WAVECAR
   LDOWNSAMPLE  =      F    k-point downsampling of WAVECAR
   LCHARG       =      F    write CHGCAR
   LVTOT        =      F    write LOCPOT, total local potential
   LVHAR        =      F    write LOCPOT, Hartree potential only
   LELF         =      F    write electronic localiz. function (ELF)
   LORBIT       =      0    0 simple, 1 ext, 2 COOP (PROOUT), +10 PAW based schemes


 Dipole corrections
   LMONO  =      F    monopole corrections only (constant potential shift)
   LDIPOL =      F    correct potential (dipole corrections)
   IDIPOL =      3    1-x, 2-y, 3-z, 4-all directions 
   EPSILON=  1.0000000 bulk dielectric constant

 Exchange correlation treatment:
   GGA     =    --    GGA type
   LEXCH   =     8    internal setting for exchange type
   VOSKOWN=      0    Vosko Wilk Nusair interpolation
   LHFCALC =     F    Hartree Fock is set to
   LHFONE  =     F    Hartree Fock one center treatment
   AEXX    =    0.0000 exact exchange contribution

 Linear response parameters
   LEPSILON=     F    determine dielectric tensor
   LRPA    =     F    only Hartree local field effects (RPA)
   LNABLA  =     F    use nabla operator in PAW spheres
   LVEL    =     F    velocity operator in full k-point grid
   LINTERFAST=   F  fast interpolation
   KINTER  =     0    interpolate to denser k-point grid
   CSHIFT  =0.1000    complex shift for real part using Kramers Kronig
   OMEGAMAX=  -1.0    maximum frequency
   DEG_THRESHOLD= 0.2000000E-02 threshold for treating states as degnerate
   RTIME   =   -0.100 relaxation time in fs
  (WPLASMAI=    0.000 imaginary part of plasma frequency in eV, 0.658/RTIME)
   DFIELD  = 0.0000000 0.0000000 0.0000000 field for delta impulse in time
 
 Orbital magnetization related:
   ORBITALMAG=     F  switch on orbital magnetization
   LCHIMAG   =     F  perturbation theory with respect to B field
   DQ        =  0.001000  dq finite difference perturbation B field
   LLRAUG    =     F  two centre corrections for induced B field



--------------------------------------------------------------------------------------------------------


 Static calculation
 charge density and potential will be updated during run
 non-spin polarized calculation
 Variant of blocked Davidson
 Davidson routine will perform the subspace rotation
 perform sub-space diagonalisation
    after iterative eigenvector-optimisation
 modified Broyden-mixing scheme, WC =      100.0
 initial mixing is a Kerker type mixing with AMIX =  0.4000 and BMIX =      1.0000
 Hartree-type preconditioning will be used
 using additional bands           16
 real space projection scheme for non local part
 use partial core corrections
 calculate Harris-corrections to forces 
   (improved forces if not selfconsistent)
 use gradient corrections 
 use of overlap-Matrix (Vanderbilt PP)
 Methfessel and Paxton  Order N= 1 SIGMA  =   0.20


--------------------------------------------------------------------------------------------------------


  energy-cutoff  :      350.00
  volume of cell :      824.13
      direct lattice vectors                 reciprocal lattice vectors
     5.557859300  0.000000000  0.000000000     0.179925390 -0.103879972  0.000000000
     2.778929650  4.813247345  0.000000000     0.000000000  0.207759944  0.000000000
     0.000000000  0.000000000 30.806959674     0.000000000  0.000000000  0.032460198

  length of vectors
     5.557859300  5.557859300 30.806959674     0.207759944  0.207759944  0.032460198


 
 k-points in units of 2pi/SCALE and weight: 0.5.Ir1.Au10                            
   0.01124534  0.00649250  0.00000000       0.010
   0.00000000  0.01298500  0.00000000       0.010
  -0.01124534  0.00649250  0.00000000       0.010
   0.03373601 -0.00649250  0.00000000       0.010
   0.02249067  0.02596999  0.00000000       0.010
  -0.01124534  0.03246249  0.00000000       0.010
   0.02249067 -0.02596999  0.00000000       0.010
  -0.01124534 -0.03246249  0.00000000       0.010
  -0.03373601 -0.00649250  0.00000000       0.010
   0.05622668 -0.01947749  0.00000000       0.010
   0.04498135  0.03895499  0.00000000       0.010
  -0.01124534  0.05843248  0.00000000       0.010
   0.04498135 -0.03895499  0.00000000       0.010
  -0.01124534 -0.05843248  0.00000000       0.010
  -0.05622668 -0.01947749  0.00000000       0.010
   0.07871736 -0.03246249  0.00000000       0.010
   0.06747202  0.05193999  0.00000000       0.010
  -0.01124534  0.08440248  0.00000000       0.010
   0.06747202 -0.05193999  0.00000000       0.010
  -0.01124534 -0.08440248  0.00000000       0.010
  -0.07871736 -0.03246249  0.00000000       0.010
  -0.07871736  0.05843248  0.00000000       0.010
   0.08996269 -0.14283496  0.00000000       0.010
  -0.01124534  0.11037247  0.00000000       0.010
   0.08996269 -0.06492498  0.00000000       0.010
  -0.01124534  0.09738747  0.00000000       0.010
   0.07871736  0.05843248  0.00000000       0.010
  -0.05622668  0.04544749  0.00000000       0.010
  -0.06747202 -0.02596999  0.00000000       0.010
  -0.01124534 -0.07141748  0.00000000       0.010
  -0.06747202  0.02596999  0.00000000       0.010
  -0.01124534  0.07141748  0.00000000       0.010
   0.05622668  0.04544749  0.00000000       0.010
  -0.03373601  0.03246249  0.00000000       0.010
  -0.04498135 -0.01298500  0.00000000       0.010
  -0.01124534 -0.04544749  0.00000000       0.010
  -0.04498135  0.01298500  0.00000000       0.010
  -0.01124534  0.04544749  0.00000000       0.010
   0.03373601  0.03246249  0.00000000       0.010
  -0.01124534  0.01947749  0.00000000       0.010
  -0.02249067  0.00000000  0.00000000       0.010
  -0.01124534 -0.01947749  0.00000000       0.010
   0.03373601  0.01947749  0.00000000       0.010
   0.00000000  0.03895499  0.00000000       0.010
  -0.03373601  0.01947749  0.00000000       0.010
   0.05622668  0.00649250  0.00000000       0.010
   0.02249067  0.05193999  0.00000000       0.010
  -0.03373601  0.04544749  0.00000000       0.010
   0.02249067 -0.05193999  0.00000000       0.010
  -0.03373601 -0.04544749  0.00000000       0.010
  -0.05622668  0.00649250  0.00000000       0.010
   0.07871736 -0.00649250  0.00000000       0.010
   0.04498135  0.06492498  0.00000000       0.010
  -0.03373601  0.07141748  0.00000000       0.010
   0.04498135 -0.06492498  0.00000000       0.010
  -0.03373601 -0.07141748  0.00000000       0.010
  -0.07871736 -0.00649250  0.00000000       0.010
  -0.07871736  0.08440248  0.00000000       0.010
   0.06747202 -0.12984997  0.00000000       0.010
  -0.03373601  0.09738747  0.00000000       0.010
   0.06747202 -0.07790998  0.00000000       0.010
  -0.03373601  0.11037247  0.00000000       0.010
   0.07871736 -0.12335747  0.00000000       0.010
  -0.05622668  0.07141748  0.00000000       0.010
   0.08996269 -0.11686497  0.00000000       0.010
  -0.03373601  0.12335747  0.00000000       0.010
   0.08996269 -0.09089498  0.00000000       0.010
  -0.03373601  0.08440248  0.00000000       0.010
   0.05622668  0.07141748  0.00000000       0.010
  -0.03373601  0.05843248  0.00000000       0.010
  -0.06747202  0.00000000  0.00000000       0.010
  -0.03373601 -0.05843248  0.00000000       0.010
   0.05622668  0.03246249  0.00000000       0.010
   0.00000000  0.06492498  0.00000000       0.010
  -0.05622668  0.03246249  0.00000000       0.010
   0.07871736  0.01947749  0.00000000       0.010
   0.02249067  0.07790998  0.00000000       0.010
  -0.05622668  0.05843248  0.00000000       0.010
   0.02249067 -0.07790998  0.00000000       0.010
  -0.05622668 -0.05843248  0.00000000       0.010
  -0.07871736  0.01947749  0.00000000       0.010
  -0.07871736  0.11037247  0.00000000       0.010
   0.04498135 -0.11686497  0.00000000       0.010
  -0.05622668  0.08440248  0.00000000       0.010
   0.04498135 -0.09089498  0.00000000       0.010
  -0.05622668  0.12335747  0.00000000       0.010
   0.07871736 -0.09738747  0.00000000       0.010
  -0.05622668  0.09738747  0.00000000       0.010
   0.06747202 -0.10387997  0.00000000       0.010
  -0.05622668  0.11037247  0.00000000       0.010
   0.07871736  0.04544749  0.00000000       0.010
   0.00000000  0.09089498  0.00000000       0.010
  -0.07871736  0.04544749  0.00000000       0.010
  -0.07871736  0.13634246  0.00000000       0.010
   0.02249067 -0.10387997  0.00000000       0.010
  -0.07871736  0.07141748  0.00000000       0.010
 
 k-points in reciprocal lattice and weights: 0.5.Ir1.Au10                            
   0.06250000  0.06250000  0.00000000       0.010
   0.00000000  0.06250000  0.00000000       0.010
  -0.06250000  0.00000000  0.00000000       0.010
   0.18750000  0.06250000  0.00000000       0.010
   0.12500000  0.18750000  0.00000000       0.010
  -0.06250000  0.12500000  0.00000000       0.010
   0.12500000 -0.06250000  0.00000000       0.010
  -0.06250000 -0.18750000  0.00000000       0.010
  -0.18750000 -0.12500000  0.00000000       0.010
   0.31250000  0.06250000  0.00000000       0.010
   0.25000000  0.31250000  0.00000000       0.010
  -0.06250000  0.25000000  0.00000000       0.010
   0.25000000 -0.06250000  0.00000000       0.010
  -0.06250000 -0.31250000  0.00000000       0.010
  -0.31250000 -0.25000000  0.00000000       0.010
   0.43750000  0.06250000  0.00000000       0.010
   0.37500000  0.43750000  0.00000000       0.010
  -0.06250000  0.37500000  0.00000000       0.010
   0.37500000 -0.06250000  0.00000000       0.010
  -0.06250000 -0.43750000  0.00000000       0.010
  -0.43750000 -0.37500000  0.00000000       0.010
  -0.43750000  0.06250000  0.00000000       0.010
   0.50000000 -0.43750000  0.00000000       0.010
  -0.06250000  0.50000000  0.00000000       0.010
   0.50000000 -0.06250000  0.00000000       0.010
  -0.06250000  0.43750000  0.00000000       0.010
   0.43750000  0.50000000  0.00000000       0.010
  -0.31250000  0.06250000  0.00000000       0.010
  -0.37500000 -0.31250000  0.00000000       0.010
  -0.06250000 -0.37500000  0.00000000       0.010
  -0.37500000 -0.06250000  0.00000000       0.010
  -0.06250000  0.31250000  0.00000000       0.010
   0.31250000  0.37500000  0.00000000       0.010
  -0.18750000  0.06250000  0.00000000       0.010
  -0.25000000 -0.18750000  0.00000000       0.010
  -0.06250000 -0.25000000  0.00000000       0.010
  -0.25000000 -0.06250000  0.00000000       0.010
  -0.06250000  0.18750000  0.00000000       0.010
   0.18750000  0.25000000  0.00000000       0.010
  -0.06250000  0.06250000  0.00000000       0.010
  -0.12500000 -0.06250000  0.00000000       0.010
  -0.06250000 -0.12500000  0.00000000       0.010
   0.18750000  0.18750000  0.00000000       0.010
   0.00000000  0.18750000  0.00000000       0.010
  -0.18750000  0.00000000  0.00000000       0.010
   0.31250000  0.18750000  0.00000000       0.010
   0.12500000  0.31250000  0.00000000       0.010
  -0.18750000  0.12500000  0.00000000       0.010
   0.12500000 -0.18750000  0.00000000       0.010
  -0.18750000 -0.31250000  0.00000000       0.010
  -0.31250000 -0.12500000  0.00000000       0.010
   0.43750000  0.18750000  0.00000000       0.010
   0.25000000  0.43750000  0.00000000       0.010
  -0.18750000  0.25000000  0.00000000       0.010
   0.25000000 -0.18750000  0.00000000       0.010
  -0.18750000 -0.43750000  0.00000000       0.010
  -0.43750000 -0.25000000  0.00000000       0.010
  -0.43750000  0.18750000  0.00000000       0.010
   0.37500000 -0.43750000  0.00000000       0.010
  -0.18750000  0.37500000  0.00000000       0.010
   0.37500000 -0.18750000  0.00000000       0.010
  -0.18750000  0.43750000  0.00000000       0.010
   0.43750000 -0.37500000  0.00000000       0.010
  -0.31250000  0.18750000  0.00000000       0.010
   0.50000000 -0.31250000  0.00000000       0.010
  -0.18750000  0.50000000  0.00000000       0.010
   0.50000000 -0.18750000  0.00000000       0.010
  -0.18750000  0.31250000  0.00000000       0.010
   0.31250000  0.50000000  0.00000000       0.010
  -0.18750000  0.18750000  0.00000000       0.010
  -0.37500000 -0.18750000  0.00000000       0.010
  -0.18750000 -0.37500000  0.00000000       0.010
   0.31250000  0.31250000  0.00000000       0.010
   0.00000000  0.31250000  0.00000000       0.010
  -0.31250000  0.00000000  0.00000000       0.010
   0.43750000  0.31250000  0.00000000       0.010
   0.12500000  0.43750000  0.00000000       0.010
  -0.31250000  0.12500000  0.00000000       0.010
   0.12500000 -0.31250000  0.00000000       0.010
  -0.31250000 -0.43750000  0.00000000       0.010
  -0.43750000 -0.12500000  0.00000000       0.010
  -0.43750000  0.31250000  0.00000000       0.010
   0.25000000 -0.43750000  0.00000000       0.010
  -0.31250000  0.25000000  0.00000000       0.010
   0.25000000 -0.31250000  0.00000000       0.010
  -0.31250000  0.43750000  0.00000000       0.010
   0.43750000 -0.25000000  0.00000000       0.010
  -0.31250000  0.31250000  0.00000000       0.010
   0.37500000 -0.31250000  0.00000000       0.010
  -0.31250000  0.37500000  0.00000000       0.010
   0.43750000  0.43750000  0.00000000       0.010
   0.00000000  0.43750000  0.00000000       0.010
  -0.43750000 -0.00000000  0.00000000       0.010
  -0.43750000  0.43750000  0.00000000       0.010
   0.12500000 -0.43750000  0.00000000       0.010
  -0.43750000  0.12500000  0.00000000       0.010
 
 position of ions in fractional coordinates (direct lattice) 
   0.84080393  0.83411951  0.54304265
   0.00435359  0.03761516  0.70475958
   0.87885607  0.21517109  0.72606714
   0.90154056  0.91397787  0.70054276
   0.21876148  0.90758821  0.71591007
   0.01358312  0.15264794  0.67449012
   0.50228507  0.00297804  0.39324954
   0.17130286  0.66932446  0.46852214
   0.67133409  0.66979427  0.46871567
   0.83940859  0.33392762  0.54259022
   0.33951203  0.33276924  0.54286896
   0.17106828  0.16939492  0.46852282
   0.33893697  0.83393027  0.54270515
   0.00442941  0.99441915  0.61818172
   0.50612719  0.99566957  0.61780603
   0.00636926  0.49624208  0.61804719
   0.50439204  0.49657980  0.61752625
   0.50224521  0.50335666  0.39304558
   0.00208030  0.50324642  0.39320135
   0.67119537  0.16955342  0.46844753
   0.00231916  0.00325708  0.39312595
 
 position of ions in cartesian coordinates  (Angst):
   6.99102940  4.01482353 16.72949293
   0.12872652  0.18105107 21.71150001
   5.48250368  1.03567166 22.36792107
   7.55051578  4.39920155 21.58159247
   3.73796932  4.36844652 22.05501253
   0.49969093  0.73473229 20.77898987
   2.79990550  0.01433403 12.11482266
   2.81208280  3.22162419 14.43374277
   5.59249160  3.22388551 14.43970460
   5.59327619  1.60727624 16.71555509
   2.81170243  1.60170067 16.72414227
   1.42151002  0.81533965 14.43376372
   4.20119757  4.01391267 16.71909572
   2.78803892  4.78638533 19.04429922
   5.57987940  4.79240389 19.03272553
   1.41442128  2.38853588 19.04015501
   4.18330036  2.39016143 19.02410641
   4.19020096  2.42278009 12.10853922
   1.41004843  2.42224950 12.11333801
   4.20158647  0.81610256 14.43144409
   0.02194075  0.01567712 12.11101524
 


--------------------------------------------------------------------------------------------------------


 k-point  1 :   0.0625 0.0625 0.0000  plane waves:   12325
 k-point  2 :   0.0000 0.0625 0.0000  plane waves:   12325
 k-point  3 :  -0.0625 0.0000 0.0000  plane waves:   12325
 k-point  4 :   0.1875 0.0625 0.0000  plane waves:   12294
 k-point  5 :   0.1250 0.1875 0.0000  plane waves:   12294
 k-point  6 :  -0.0625 0.1250 0.0000  plane waves:   12294
 k-point  7 :   0.1250-0.0625 0.0000  plane waves:   12294
 k-point  8 :  -0.0625-0.1875 0.0000  plane waves:   12294
 k-point  9 :  -0.1875-0.1250 0.0000  plane waves:   12294
 k-point 10 :   0.3125 0.0625 0.0000  plane waves:   12263
 k-point 11 :   0.2500 0.3125 0.0000  plane waves:   12263
 k-point 12 :  -0.0625 0.2500 0.0000  plane waves:   12263
 k-point 13 :   0.2500-0.0625 0.0000  plane waves:   12263
 k-point 14 :  -0.0625-0.3125 0.0000  plane waves:   12263
 k-point 15 :  -0.3125-0.2500 0.0000  plane waves:   12263
 k-point 16 :   0.4375 0.0625 0.0000  plane waves:   12221
 k-point 17 :   0.3750 0.4375 0.0000  plane waves:   12221
 k-point 18 :  -0.0625 0.3750 0.0000  plane waves:   12221
 k-point 19 :   0.3750-0.0625 0.0000  plane waves:   12221
 k-point 20 :  -0.0625-0.4375 0.0000  plane waves:   12221
 k-point 21 :  -0.4375-0.3750 0.0000  plane waves:   12221
 k-point 22 :  -0.4375 0.0625 0.0000  plane waves:   12211
 k-point 23 :   0.5000-0.4375 0.0000  plane waves:   12211
 k-point 24 :  -0.0625 0.5000 0.0000  plane waves:   12211
 k-point 25 :   0.5000-0.0625 0.0000  plane waves:   12211
 k-point 26 :  -0.0625 0.4375 0.0000  plane waves:   12211
 k-point 27 :   0.4375 0.5000 0.0000  plane waves:   12211
 k-point 28 :  -0.3125 0.0625 0.0000  plane waves:   12242
 k-point 29 :  -0.3750-0.3125 0.0000  plane waves:   12242
 k-point 30 :  -0.0625-0.3750 0.0000  plane waves:   12242
 k-point 31 :  -0.3750-0.0625 0.0000  plane waves:   12242
 k-point 32 :  -0.0625 0.3125 0.0000  plane waves:   12242
 k-point 33 :   0.3125 0.3750 0.0000  plane waves:   12242
 k-point 34 :  -0.1875 0.0625 0.0000  plane waves:   12280
 k-point 35 :  -0.2500-0.1875 0.0000  plane waves:   12280
 k-point 36 :  -0.0625-0.2500 0.0000  plane waves:   12280
 k-point 37 :  -0.2500-0.0625 0.0000  plane waves:   12280
 k-point 38 :  -0.0625 0.1875 0.0000  plane waves:   12280
 k-point 39 :   0.1875 0.2500 0.0000  plane waves:   12280
 k-point 40 :  -0.0625 0.0625 0.0000  plane waves:   12329
 k-point 41 :  -0.1250-0.0625 0.0000  plane waves:   12329
 k-point 42 :  -0.0625-0.1250 0.0000  plane waves:   12329
 k-point 43 :   0.1875 0.1875 0.0000  plane waves:   12277
 k-point 44 :   0.0000 0.1875 0.0000  plane waves:   12277
 k-point 45 :  -0.1875 0.0000 0.0000  plane waves:   12277
 k-point 46 :   0.3125 0.1875 0.0000  plane waves:   12288
 k-point 47 :   0.1250 0.3125 0.0000  plane waves:   12288
 k-point 48 :  -0.1875 0.1250 0.0000  plane waves:   12288
 k-point 49 :   0.1250-0.1875 0.0000  plane waves:   12288
 k-point 50 :  -0.1875-0.3125 0.0000  plane waves:   12288
 k-point 51 :  -0.3125-0.1250 0.0000  plane waves:   12288
 k-point 52 :   0.4375 0.1875 0.0000  plane waves:   12234
 k-point 53 :   0.2500 0.4375 0.0000  plane waves:   12234
 k-point 54 :  -0.1875 0.2500 0.0000  plane waves:   12234
 k-point 55 :   0.2500-0.1875 0.0000  plane waves:   12234
 k-point 56 :  -0.1875-0.4375 0.0000  plane waves:   12234
 k-point 57 :  -0.4375-0.2500 0.0000  plane waves:   12234
 k-point 58 :  -0.4375 0.1875 0.0000  plane waves:   12216
 k-point 59 :   0.3750-0.4375 0.0000  plane waves:   12216
 k-point 60 :  -0.1875 0.3750 0.0000  plane waves:   12216
 k-point 61 :   0.3750-0.1875 0.0000  plane waves:   12216
 k-point 62 :  -0.1875 0.4375 0.0000  plane waves:   12216
 k-point 63 :   0.4375-0.3750 0.0000  plane waves:   12216
 k-point 64 :  -0.3125 0.1875 0.0000  plane waves:   12215
 k-point 65 :   0.5000-0.3125 0.0000  plane waves:   12215
 k-point 66 :  -0.1875 0.5000 0.0000  plane waves:   12215
 k-point 67 :   0.5000-0.1875 0.0000  plane waves:   12215
 k-point 68 :  -0.1875 0.3125 0.0000  plane waves:   12215
 k-point 69 :   0.3125 0.5000 0.0000  plane waves:   12215
 k-point 70 :  -0.1875 0.1875 0.0000  plane waves:   12289
 k-point 71 :  -0.3750-0.1875 0.0000  plane waves:   12289
 k-point 72 :  -0.1875-0.3750 0.0000  plane waves:   12289
 k-point 73 :   0.3125 0.3125 0.0000  plane waves:   12275
 k-point 74 :   0.0000 0.3125 0.0000  plane waves:   12275
 k-point 75 :  -0.3125 0.0000 0.0000  plane waves:   12275
 k-point 76 :   0.4375 0.3125 0.0000  plane waves:   12239
 k-point 77 :   0.1250 0.4375 0.0000  plane waves:   12239
 k-point 78 :  -0.3125 0.1250 0.0000  plane waves:   12239
 k-point 79 :   0.1250-0.3125 0.0000  plane waves:   12239
 k-point 80 :  -0.3125-0.4375 0.0000  plane waves:   12239
 k-point 81 :  -0.4375-0.1250 0.0000  plane waves:   12239
 k-point 82 :  -0.4375 0.3125 0.0000  plane waves:   12235
 k-point 83 :   0.2500-0.4375 0.0000  plane waves:   12235
 k-point 84 :  -0.3125 0.2500 0.0000  plane waves:   12235
 k-point 85 :   0.2500-0.3125 0.0000  plane waves:   12235
 k-point 86 :  -0.3125 0.4375 0.0000  plane waves:   12235
 k-point 87 :   0.4375-0.2500 0.0000  plane waves:   12235
 k-point 88 :  -0.3125 0.3125 0.0000  plane waves:   12232
 k-point 89 :   0.3750-0.3125 0.0000  plane waves:   12232
 k-point 90 :  -0.3125 0.3750 0.0000  plane waves:   12232
 k-point 91 :   0.4375 0.4375 0.0000  plane waves:   12200
 k-point 92 :   0.0000 0.4375 0.0000  plane waves:   12200
 k-point 93 :  -0.4375-0.0000 0.0000  plane waves:   12200
 k-point 94 :  -0.4375 0.4375 0.0000  plane waves:   12214
 k-point 95 :   0.1250-0.4375 0.0000  plane waves:   12214
 k-point 96 :  -0.4375 0.1250 0.0000  plane waves:   12214

 maximum and minimum number of plane-waves per node :      3101     2992

 maximum number of plane-waves:     12329
 maximum index in each direction: 
   IXMAX=    8   IYMAX=    8   IZMAX=   46
   IXMIN=   -8   IYMIN=   -8   IZMIN=  -46


 real space projection operators:
  total allocation   :       5095.41 KBytes
  max/ min on nodes  :       1278.22       1270.16


 parallel 3D FFT for wavefunctions:
    minimum data exchange during FFTs selected (reduces bandwidth)
 parallel 3D FFT for charge:
    minimum data exchange during FFTs selected (reduces bandwidth)


 total amount of memory used by VASP MPI-rank0   164312. kBytes
=======================================================================

   base      :      30000. kBytes
   nonlr-proj:       2359. kBytes
   fftplans  :       2967. kBytes
   grid      :       6321. kBytes
   one-center:         93. kBytes
   wavefun   :     122572. kBytes
 
     INWAV:  cpu time    0.0000: real time    0.0000
 Broyden mixing: mesh for mixing (old mesh)
   NGX = 17   NGY = 17   NGZ = 93
  (NGX  = 56   NGY  = 56   NGZ  =288)
  gives a total of  26877 points

 initial charge density was supplied:
 charge density of overlapping atoms calculated
 number of electron     168.0000000 magnetization 
 keeping initial charge density in first step


--------------------------------------------------------------------------------------------------------


 Maximum index for non-local projection operator          543
 Maximum index for augmentation-charges          717 (set IRDMAX)


--------------------------------------------------------------------------------------------------------


 First call to EWALD:  gamma=   0.189
 Maximum number of real-space cells 5x 5x 1
 Maximum number of reciprocal cells 2x 2x 8

    FEWALD:  cpu time    0.0013: real time    0.0013


--------------------------------------- Iteration      1(   1)  ---------------------------------------


    POTLOK:  cpu time    0.0256: real time    0.0318
    SETDIJ:  cpu time    0.0034: real time    0.0034
     EDDAV:  cpu time   13.4119: real time   13.4125
       DOS:  cpu time    0.0069: real time    0.0069
    --------------------------------------------
      LOOP:  cpu time   13.4479: real time   13.4547

 eigenvalue-minimisations  : 19288
 total energy-change (2. order) : 0.1029489E+04  (-0.5831851E+04)
 number of electron     168.0000000 magnetization 
 augmentation part      168.0000000 magnetization 

 Free energy of the ion-electron system (eV)
  ---------------------------------------------------
  alpha Z        PSCENC =       324.87461712
  Ewald energy   TEWEN  =    101580.11358828
  -Hartree energ DENC   =   -113865.00928386
  -exchange      EXHF   =         0.00000000
  -V(xc)+E(xc)   XCENC  =        69.38017614
  PAW double counting   =     11288.27476651   -10829.50941267
  entropy T*S    EENTRO =        -0.00781718
  eigenvalues    EBANDS =       570.73496188
  atomic energy  EATOM  =     11890.63736546
  Solvation  Ediel_sol  =         0.00000000
  ---------------------------------------------------
  free energy    TOTEN  =      1029.48896168 eV

  energy without entropy =     1029.49677886  energy(sigma->0) =     1029.49156741


--------------------------------------------------------------------------------------------------------




--------------------------------------- Iteration      1(   2)  ---------------------------------------


     EDDAV:  cpu time   15.8893: real time   15.8901
       DOS:  cpu time    0.0084: real time    0.0084
    --------------------------------------------
      LOOP:  cpu time   15.8976: real time   15.8985

 eigenvalue-minimisations  : 23936
 total energy-change (2. order) :-0.1057668E+04  (-0.9832347E+03)
 number of electron     168.0000000 magnetization 
 augmentation part      168.0000000 magnetization 

 Free energy of the ion-electron system (eV)
  ---------------------------------------------------
  alpha Z        PSCENC =       324.87461712
  Ewald energy   TEWEN  =    101580.11358828
  -Hartree energ DENC   =   -113865.00928386
  -exchange      EXHF   =         0.00000000
  -V(xc)+E(xc)   XCENC  =        69.38017614
  PAW double counting   =     11288.27476651   -10829.50941267
  entropy T*S    EENTRO =         0.00425702
  eigenvalues    EBANDS =      -486.94540392
  atomic energy  EATOM  =     11890.63736546
  Solvation  Ediel_sol  =         0.00000000
  ---------------------------------------------------
  free energy    TOTEN  =       -28.17932992 eV

  energy without entropy =      -28.18358694  energy(sigma->0) =      -28.18074893


--------------------------------------------------------------------------------------------------------




--------------------------------------- Iteration      1(   3)  ---------------------------------------


     EDDAV:  cpu time   15.3604: real time   15.3644
       DOS:  cpu time    0.0085: real time    0.0085
    --------------------------------------------
      LOOP:  cpu time   15.3689: real time   15.3729

 eigenvalue-minimisations  : 22952
 total energy-change (2. order) :-0.9218008E+02  (-0.8520628E+02)
 number of electron     168.0000000 magnetization 
 augmentation part      168.0000000 magnetization 

 Free energy of the ion-electron system (eV)
  ---------------------------------------------------
  alpha Z        PSCENC =       324.87461712
  Ewald energy   TEWEN  =    101580.11358828
  -Hartree energ DENC   =   -113865.00928386
  -exchange      EXHF   =         0.00000000
  -V(xc)+E(xc)   XCENC  =        69.38017614
  PAW double counting   =     11288.27476651   -10829.50941267
  entropy T*S    EENTRO =        -0.00528716
  eigenvalues    EBANDS =      -579.11594026
  atomic energy  EATOM  =     11890.63736546
  Solvation  Ediel_sol  =         0.00000000
  ---------------------------------------------------
  free energy    TOTEN  =      -120.35941044 eV

  energy without entropy =     -120.35412328  energy(sigma->0) =     -120.35764805


--------------------------------------------------------------------------------------------------------




--------------------------------------- Iteration      1(   4)  ---------------------------------------


     EDDAV:  cpu time   16.8357: real time   16.8367
       DOS:  cpu time    0.0087: real time    0.0087
    --------------------------------------------
      LOOP:  cpu time   16.8444: real time   16.8453

 eigenvalue-minimisations  : 25840
 total energy-change (2. order) :-0.4482208E+01  (-0.4262252E+01)
 number of electron     168.0000000 magnetization 
 augmentation part      168.0000000 magnetization 

 Free energy of the ion-electron system (eV)
  ---------------------------------------------------
  alpha Z        PSCENC =       324.87461712
  Ewald energy   TEWEN  =    101580.11358828
  -Hartree energ DENC   =   -113865.00928386
  -exchange      EXHF   =         0.00000000
  -V(xc)+E(xc)   XCENC  =        69.38017614
  PAW double counting   =     11288.27476651   -10829.50941267
  entropy T*S    EENTRO =        -0.00808729
  eigenvalues    EBANDS =      -583.59534857
  atomic energy  EATOM  =     11890.63736546
  Solvation  Ediel_sol  =         0.00000000
  ---------------------------------------------------
  free energy    TOTEN  =      -124.84161889 eV

  energy without entropy =     -124.83353159  energy(sigma->0) =     -124.83892312


--------------------------------------------------------------------------------------------------------




--------------------------------------- Iteration      1(   5)  ---------------------------------------


     EDDAV:  cpu time   17.3895: real time   17.3946
       DOS:  cpu time    0.0086: real time    0.0086
    CHARGE:  cpu time    0.7167: real time    0.7168
    MIXING:  cpu time    0.0009: real time    0.0009
    --------------------------------------------
      LOOP:  cpu time   18.1158: real time   18.1209

 eigenvalue-minimisations  : 26816
 total energy-change (2. order) :-0.1405175E+00  (-0.1391274E+00)
 number of electron     168.0000064 magnetization 
 augmentation part       47.0970279 magnetization 

 Broyden mixing:
  rms(total) = 0.43138E+01    rms(broyden)= 0.43137E+01
  rms(prec ) = 0.43580E+01
  weight for this iteration     100.00

 Free energy of the ion-electron system (eV)
  ---------------------------------------------------
  alpha Z        PSCENC =       324.87461712
  Ewald energy   TEWEN  =    101580.11358828
  -Hartree energ DENC   =   -113865.00928386
  -exchange      EXHF   =         0.00000000
  -V(xc)+E(xc)   XCENC  =        69.38017614
  PAW double counting   =     11288.27476651   -10829.50941267
  entropy T*S    EENTRO =        -0.00829955
  eigenvalues    EBANDS =      -583.73565379
  atomic energy  EATOM  =     11890.63736546
  Solvation  Ediel_sol  =         0.00000000
  ---------------------------------------------------
  free energy    TOTEN  =      -124.98213637 eV

  energy without entropy =     -124.97383682  energy(sigma->0) =     -124.97936985


--------------------------------------------------------------------------------------------------------




--------------------------------------- Iteration      1(   6)  ---------------------------------------


    POTLOK:  cpu time    0.0232: real time    0.0235
    SETDIJ:  cpu time    0.0034: real time    0.0034
     EDDAV:  cpu time   15.4941: real time   15.4946
       DOS:  cpu time    0.0102: real time    0.0102
    CHARGE:  cpu time    0.7448: real time    0.7448
    MIXING:  cpu time    0.0011: real time    0.0011
    --------------------------------------------
      LOOP:  cpu time   16.2768: real time   16.2776

 eigenvalue-minimisations  : 23276
 total energy-change (2. order) : 0.5315404E+01  (-0.3453192E+01)
 number of electron     168.0000060 magnetization 
 augmentation part       49.8372797 magnetization 

 Broyden mixing:
  rms(total) = 0.35317E+01    rms(broyden)= 0.35316E+01
  rms(prec ) = 0.38754E+01
  weight for this iteration     100.00

 eigenvalues of (default mixing * dielectric matrix)
  average eigenvalue GAMMA=   0.9619
  0.9619

 Free energy of the ion-electron system (eV)
  ---------------------------------------------------
  alpha Z        PSCENC =       324.87461712
  Ewald energy   TEWEN  =    101580.11358828
  -Hartree energ DENC   =   -113661.60349073
  -exchange      EXHF   =         0.00000000
  -V(xc)+E(xc)   XCENC  =        66.31715632
  PAW double counting   =     12566.34504164   -12131.17484585
  entropy T*S    EENTRO =         0.01868509
  eigenvalues    EBANDS =      -755.19484955
  atomic energy  EATOM  =     11890.63736546
  Solvation  Ediel_sol  =         0.00000000
  ---------------------------------------------------
  free energy    TOTEN  =      -119.66673221 eV

  energy without entropy =     -119.68541730  energy(sigma->0) =     -119.67296057


--------------------------------------------------------------------------------------------------------




--------------------------------------- Iteration      1(   7)  ---------------------------------------


    POTLOK:  cpu time    0.0221: real time    0.0240
    SETDIJ:  cpu time    0.0033: real time    0.0033
     EDDAV:  cpu time   18.6741: real time   18.6746
       DOS:  cpu time    0.0090: real time    0.0090
    CHARGE:  cpu time    0.7153: real time    0.7153
    MIXING:  cpu time    0.0011: real time    0.0011
    --------------------------------------------
      LOOP:  cpu time   19.4250: real time   19.4274

 eigenvalue-minimisations  : 29344
 total energy-change (2. order) :-0.5295733E+02  (-0.2311539E+02)
 number of electron     168.0000064 magnetization 
 augmentation part       47.8114028 magnetization 

 Broyden mixing:
  rms(total) = 0.59366E+01    rms(broyden)= 0.59365E+01
  rms(prec ) = 0.75346E+01
  weight for this iteration     100.00

 eigenvalues of (default mixing * dielectric matrix)
  average eigenvalue GAMMA=   0.8699
  1.5839  0.1560

 Free energy of the ion-electron system (eV)
  ---------------------------------------------------
  alpha Z        PSCENC =       324.87461712
  Ewald energy   TEWEN  =    101580.11358828
  -Hartree energ DENC   =   -113757.49284138
  -exchange      EXHF   =         0.00000000
  -V(xc)+E(xc)   XCENC  =        65.85445131
  PAW double counting   =     13208.28536264   -12779.73931499
  entropy T*S    EENTRO =        -0.00847376
  eigenvalues    EBANDS =      -705.14881711
  atomic energy  EATOM  =     11890.63736546
  Solvation  Ediel_sol  =         0.00000000
  ---------------------------------------------------
  free energy    TOTEN  =      -172.62406243 eV

  energy without entropy =     -172.61558867  energy(sigma->0) =     -172.62123784


--------------------------------------------------------------------------------------------------------




--------------------------------------- Iteration      1(   8)  ---------------------------------------


    POTLOK:  cpu time    0.0226: real time    0.0228
    SETDIJ:  cpu time    0.0034: real time    0.0034
     EDDAV:  cpu time   17.7926: real time   17.7931
       DOS:  cpu time    0.0095: real time    0.0095
    CHARGE:  cpu time    0.7159: real time    0.7159
    MIXING:  cpu time    0.0012: real time    0.0012
    --------------------------------------------
      LOOP:  cpu time   18.5452: real time   18.5458

 eigenvalue-minimisations  : 27620
 total energy-change (2. order) : 0.2749012E+02  (-0.1008204E+02)
 number of electron     168.0000073 magnetization 
 augmentation part       49.2134685 magnetization 

 Broyden mixing:
  rms(total) = 0.45271E+01    rms(broyden)= 0.45270E+01
  rms(prec ) = 0.50666E+01
  weight for this iteration     100.00

 eigenvalues of (default mixing * dielectric matrix)
  average eigenvalue GAMMA=   0.8300
  2.0527  0.2187  0.2187

 Free energy of the ion-electron system (eV)
  ---------------------------------------------------
  alpha Z        PSCENC =       324.87461712
  Ewald energy   TEWEN  =    101580.11358828
  -Hartree energ DENC   =   -113824.16664558
  -exchange      EXHF   =         0.00000000
  -V(xc)+E(xc)   XCENC  =        65.20847173
  PAW double counting   =     14022.65578135   -13603.32385587
  entropy T*S    EENTRO =        -0.00983965
  eigenvalues    EBANDS =      -601.12342619
  atomic energy  EATOM  =     11890.63736546
  Solvation  Ediel_sol  =         0.00000000
[...]
     21      -5.2021      2.00000
     22      -5.1645      2.00000
     23      -5.0156      2.00000
     24      -4.9392      2.00000
     25      -4.8265      2.00000
     26      -4.7744      2.00000
     27      -4.6615      2.00000
     28      -4.6025      2.00000
     29      -4.5786      2.00000
     30      -4.5512      2.00000
     31      -4.4864      2.00000
     32      -4.4599      2.00000
     33      -4.1815      2.00000
     34      -4.0925      2.00000
     35      -4.0475      2.00000
     36      -3.9957      2.00000
     37      -3.9481      2.00000
     38      -3.8913      2.00000
     39      -3.7656      2.00000
     40      -3.7390      2.00000
     41      -3.6245      2.00000
     42      -3.5677      2.00000
     43      -3.5330      2.00000
     44      -3.4634      2.00000
     45      -3.4244      2.00000
     46      -3.2920      2.00000
     47      -3.2399      2.00000
     48      -3.2212      2.00000
     49      -3.1481      2.00000
     50      -3.1181      2.00000
     51      -3.0871      2.00000
     52      -3.0617      2.00000
     53      -3.0153      2.00000
     54      -2.8937      2.00000
     55      -2.8090      2.00000
     56      -2.7624      2.00000
     57      -2.6502      2.00000
     58      -2.5205      2.00000
     59      -2.3893      2.00000
     60      -2.3309      2.00000
     61      -2.3034      2.00000
     62      -2.2578      2.00000
     63      -2.1134      2.00000
     64      -2.0405      2.00000
     65      -1.9126      2.00000
     66      -1.8479      2.00000
     67      -1.7693      2.00000
     68      -1.6851      2.00000
     69      -1.6517      2.00000
     70      -1.5951      2.00000
     71      -1.5058      2.00000
     72      -1.4535      2.00000
     73      -1.3796      2.00000
     74      -1.3477      2.00000
     75      -1.2759      2.00000
     76      -1.1604      2.00000
     77      -1.1146      2.00000
     78      -1.0268      2.00000
     79      -0.8772      2.00015
     80      -0.7069      2.00824
     81      -0.6894      2.01130
     82      -0.5810      2.04974
     83      -0.5023      2.06982
     84      -0.4205      1.95747
     85      -0.3039      1.29230
     86      -0.2271      0.65564
     87      -0.1651      0.23982
     88      -0.0403     -0.06860
     89       0.1041     -0.02417
     90       0.2980     -0.00046
     91       0.7316     -0.00000
     92       1.1132     -0.00000
     93       2.0083     -0.00000
     94       2.1011     -0.00000
     95       2.3314     -0.00000
     96       2.8403     -0.00000
     97       3.7452     -0.00000
     98       3.9644     -0.00000
     99       4.4255     -0.00000
    100       4.5258     -0.00000

 k-point    96 :      -0.4375    0.1250    0.0000
  band No.  band energies     occupation 
      1     -13.1367      2.00000
      2      -7.8621      2.00000
      3      -7.7637      2.00000
      4      -6.9244      2.00000
      5      -6.7514      2.00000
      6      -6.4436      2.00000
      7      -6.3264      2.00000
      8      -6.1183      2.00000
      9      -5.9902      2.00000
     10      -5.9394      2.00000
     11      -5.8866      2.00000
     12      -5.7918      2.00000
     13      -5.7394      2.00000
     14      -5.6886      2.00000
     15      -5.6782      2.00000
     16      -5.6012      2.00000
     17      -5.4879      2.00000
     18      -5.4317      2.00000
     19      -5.2797      2.00000
     20      -5.2412      2.00000
     21      -5.1933      2.00000
     22      -5.1766      2.00000
     23      -5.0097      2.00000
     24      -4.9386      2.00000
     25      -4.8451      2.00000
     26      -4.7726      2.00000
     27      -4.6560      2.00000
     28      -4.6092      2.00000
     29      -4.5813      2.00000
     30      -4.5362      2.00000
     31      -4.4946      2.00000
     32      -4.4568      2.00000
     33      -4.2153      2.00000
     34      -4.0998      2.00000
     35      -4.0501      2.00000
     36      -3.9962      2.00000
     37      -3.9509      2.00000
     38      -3.8722      2.00000
     39      -3.7723      2.00000
     40      -3.7516      2.00000
     41      -3.6334      2.00000
     42      -3.5586      2.00000
     43      -3.5254      2.00000
     44      -3.4630      2.00000
     45      -3.4150      2.00000
     46      -3.2970      2.00000
     47      -3.2426      2.00000
     48      -3.2260      2.00000
     49      -3.1475      2.00000
     50      -3.1403      2.00000
     51      -3.0870      2.00000
     52      -3.0449      2.00000
     53      -2.9866      2.00000
     54      -2.8985      2.00000
     55      -2.8153      2.00000
     56      -2.7884      2.00000
     57      -2.6916      2.00000
     58      -2.4959      2.00000
     59      -2.4042      2.00000
     60      -2.3488      2.00000
     61      -2.2622      2.00000
     62      -2.2249      2.00000
     63      -2.1233      2.00000
     64      -2.0531      2.00000
     65      -1.8863      2.00000
     66      -1.8564      2.00000
     67      -1.7609      2.00000
     68      -1.7421      2.00000
     69      -1.6388      2.00000
     70      -1.6071      2.00000
     71      -1.4902      2.00000
     72      -1.4374      2.00000
     73      -1.4033      2.00000
     74      -1.3025      2.00000
     75      -1.2650      2.00000
     76      -1.1896      2.00000
     77      -1.1648      2.00000
     78      -1.0061      2.00000
     79      -0.8566      2.00026
     80      -0.8035      2.00103
     81      -0.6597      2.01846
     82      -0.5432      2.06549
     83      -0.4862      2.06395
     84      -0.4205      1.95738
     85      -0.3206      1.42282
     86      -0.2261      0.64788
     87      -0.1517      0.17348
     88      -0.0631     -0.05565
     89       0.0941     -0.02777
     90       0.3457     -0.00012
     91       0.7345     -0.00000
     92       1.1156     -0.00000
     93       1.9969     -0.00000
     94       2.0947     -0.00000
     95       2.3673     -0.00000
     96       2.8444     -0.00000
     97       3.7182     -0.00000
     98       3.9561     -0.00000
     99       4.4175     -0.00000
    100       4.5137     -0.00000


--------------------------------------------------------------------------------------------------------


 soft charge-density along one line, spin component           1
         0         1         2         3         4         5         6         7         8         9
 total charge-density along one line
 
 pseudopotential strength for first ion, spin component:           1
 -7.891  -0.002  -0.002  -0.011  -0.000  -8.041  -0.002  -0.002
 -0.002  -7.876  -0.004  -0.001  -0.004  -0.002  -8.026  -0.004
 -0.002  -0.004  -7.893  -0.003  -0.002  -0.002  -0.004  -8.043
 -0.011  -0.001  -0.003  -7.877  -0.002  -0.010  -0.001  -0.003
 -0.000  -0.004  -0.002  -0.002  -7.890  -0.000  -0.004  -0.002
 -8.041  -0.002  -0.002  -0.010  -0.000  -8.174  -0.002  -0.002
 -0.002  -8.026  -0.004  -0.001  -0.004  -0.002  -8.160  -0.004
 -0.002  -0.004  -8.043  -0.003  -0.002  -0.002  -0.004  -8.177
 -0.010  -0.001  -0.003  -8.027  -0.002  -0.010  -0.001  -0.003
 -0.000  -0.004  -0.002  -0.002  -8.040  -0.000  -0.004  -0.002
  0.000   0.002  -0.001   0.002   0.000   0.000   0.002  -0.001
  0.000   0.003  -0.001   0.002   0.000   0.000   0.003  -0.001
 -0.000  -0.002   0.000  -0.000   0.000  -0.000  -0.002   0.000
 -0.000  -0.000  -0.002  -0.001  -0.000  -0.000  -0.000  -0.002
 -0.000  -0.000   0.000  -0.002  -0.000  -0.000  -0.000   0.000
 -0.000  -0.002   0.000  -0.000   0.000  -0.000  -0.002   0.000
 -0.000  -0.000  -0.003  -0.001  -0.000  -0.000  -0.000  -0.003
 -0.000  -0.000   0.000  -0.002  -0.000  -0.000  -0.000   0.000
 total augmentation occupancy for first ion, spin component:           1
  6.208   0.003  -0.099   0.225  -0.003  -4.195  -0.006   0.074  -0.339   0.000  -0.008  -0.005  -0.007  -0.001  -0.008  -0.000
  0.003   6.282  -0.116  -0.052   0.247  -0.006  -4.076   0.079   0.032  -0.346  -0.042  -0.001   0.004  -0.003  -0.008  -0.002
 -0.099  -0.116   6.203  -0.136  -0.079   0.074   0.079  -4.290   0.099   0.058   0.052  -0.029  -0.000   0.015   0.004   0.000
  0.225  -0.052  -0.136   6.269   0.024  -0.339   0.032   0.099  -4.096  -0.023  -0.037  -0.006  -0.009  -0.005  -0.011   0.000
 -0.003   0.247  -0.079   0.024   6.253   0.000  -0.346   0.058  -0.023  -4.230  -0.019  -0.007   0.001  -0.001  -0.014   0.000
 -4.195  -0.006   0.074  -0.339   0.000   4.096   0.008  -0.056   0.424   0.001   0.009   0.002   0.007   0.002   0.006  -0.000
 -0.006  -4.076   0.079   0.032  -0.346   0.008   3.820  -0.050  -0.016   0.420   0.033   0.003  -0.009   0.004   0.007   0.001
  0.074   0.079  -4.290   0.099   0.058  -0.056  -0.050   4.264  -0.070  -0.041  -0.060   0.028   0.000  -0.013  -0.004   0.000
 -0.339   0.032   0.099  -4.096  -0.023   0.424  -0.016  -0.070   3.867   0.022   0.028   0.006   0.008   0.007   0.004  -0.000
  0.000  -0.346   0.058  -0.023  -4.230   0.001   0.420  -0.041   0.022   4.123   0.020   0.003  -0.003   0.002   0.014   0.000
 -0.008  -0.042   0.052  -0.037  -0.019   0.009   0.033  -0.060   0.028   0.020   3.063  -0.844   0.003  -0.011   0.007  -0.000
 -0.005  -0.001  -0.029  -0.006  -0.007   0.002   0.003   0.028   0.006   0.003  -0.844   0.256  -0.000   0.004  -0.001   0.000
 -0.007   0.004  -0.000  -0.009   0.001   0.007  -0.009   0.000   0.008  -0.003   0.003  -0.000   0.248   0.003   0.001  -0.008
 -0.001  -0.003   0.015  -0.005  -0.001   0.002   0.004  -0.013   0.007   0.002  -0.011   0.004   0.003   0.245   0.003  -0.000
 -0.008  -0.008   0.004  -0.011  -0.014   0.006   0.007  -0.004   0.004   0.014   0.007  -0.001   0.001   0.003   0.251  -0.000
 -0.000  -0.002   0.000   0.000   0.000  -0.000   0.001   0.000  -0.000   0.000  -0.000   0.000  -0.008  -0.000  -0.000   0.000
  0.000  -0.000  -0.002  -0.001   0.000  -0.000  -0.000   0.001  -0.000  -0.000   0.000  -0.000  -0.000  -0.008  -0.000   0.000
 -0.000  -0.000   0.000  -0.001  -0.000  -0.000  -0.000   0.000   0.001  -0.000  -0.000   0.000  -0.000  -0.000  -0.009   0.000


------------------------ aborting loop because EDIFF is reached ----------------------------------------



 DIPCOR: dipole corrections for dipol
 direction  3 min pos    22,
 dipolmoment           0.000000      0.000000     -0.271900 electrons x Angstroem
 Tr[quadrupol]      -940.696370

 energy correction for charged system         0.000000 eV
 dipol+quadrupol energy correction            0.008116 eV
 added-field ion interaction          0.000000 eV  (added to PSCEN)

 
  *************** adding dipol energy to TOTEN NOW **************** 
    CHARGE:  cpu time    0.7337: real time    0.7338
    FORLOC:  cpu time    0.0069: real time    0.0069
    FORNL :  cpu time    3.0168: real time    3.0169
    STRESS:  cpu time    9.0983: real time    9.0985
    FORCOR:  cpu time    0.0280: real time    0.0280
    FORHAR:  cpu time    0.0118: real time    0.0118
    MIXING:  cpu time    0.0040: real time    0.0040
    OFIELD:  cpu time    0.0001: real time    0.0001

  FORCE on cell =-STRESS in cart. coord.  units (eV):
  Direction    XX          YY          ZZ          XY          YZ          ZX
  --------------------------------------------------------------------------------------
  Alpha Z   324.87462   324.87462   324.87462
  Ewald  110476.04698110474.26125************     6.97761    12.35766     4.39942
  Hartree112966.76298112966.17662************     2.72246     3.67423     1.33665
  E(xc)    -737.59872  -737.59700  -741.85268     0.02148     0.08706     0.00826
  Local  ************************228600.79574    -9.04710   -13.57271    -5.12693
  n-local    45.13472    44.80829    27.24178    -0.25964    -0.33582    -0.18084
  augment   834.64306   835.04226   862.12513     0.04859    -0.57913    -0.04596
  Kinetic  2385.28390  2385.18819  2455.91338    -0.58064    -1.74906    -0.37496
  Fock        0.00000     0.00000     0.00000     0.00000     0.00000     0.00000
  -------------------------------------------------------------------------------------
  Total     -10.06707   -10.13130     3.22512    -0.11724    -0.11777     0.01563
  in kB     -19.57128   -19.69615     6.26993    -0.22792    -0.22896     0.03039
  external pressure =      -11.00 kB  Pullay stress =        0.00 kB


 VOLUME and BASIS-vectors are now :
 -----------------------------------------------------------------------------
  energy-cutoff  :      350.00
  volume of cell :      824.13
      direct lattice vectors                 reciprocal lattice vectors
     5.557859300  0.000000000  0.000000000     0.179925390 -0.103879972  0.000000000
     2.778929650  4.813247345  0.000000000     0.000000000  0.207759944  0.000000000
     0.000000000  0.000000000 30.806959674     0.000000000  0.000000000  0.032460198

  length of vectors
     5.557859300  5.557859300 30.806959674     0.207759944  0.207759944  0.032460198


 FORCES acting on ions
    electron-ion (+dipol)            ewald-force                    non-local-force                 convergence-correction
 -----------------------------------------------------------------------------------------------
   0.418E+01 0.158E+01 -.821E+03   -.408E+01 -.154E+01 0.821E+03   -.159E+00 -.683E-01 0.130E+00   0.765E-04 -.144E-03 -.833E-02
   0.113E+01 0.314E+01 -.131E+04   -.123E+01 -.391E+01 0.131E+04   0.158E+00 0.914E+00 -.128E+01   0.308E-04 0.337E-04 0.157E-03
   0.938E+01 -.380E+02 -.340E+03   -.104E+02 0.422E+02 0.343E+03   0.102E+01 -.429E+01 -.323E+01   -.565E-04 0.274E-03 0.343E-03
   0.409E+02 0.267E+02 -.324E+03   -.454E+02 -.296E+02 0.324E+03   0.460E+01 0.300E+01 0.616E+00   -.269E-03 -.189E-03 -.189E-05
   -.371E+02 0.284E+02 -.333E+03   0.413E+02 -.315E+02 0.335E+03   -.423E+01 0.320E+01 -.170E+01   0.251E-03 -.188E-03 0.211E-03
   -.171E+02 -.255E+02 -.312E+03   0.187E+02 0.277E+02 0.309E+03   -.170E+01 -.253E+01 0.313E+01   0.932E-04 0.155E-03 -.325E-03
   -.999E-01 -.321E+00 0.266E+04   0.997E-01 0.314E+00 -.266E+04   0.397E-01 0.282E-02 -.196E+00   0.580E-04 -.767E-04 -.589E-02
   -.473E+01 0.347E+01 0.115E+04   0.491E+01 -.357E+01 -.115E+04   -.222E-01 0.467E-02 -.335E+00   -.104E-04 -.212E-04 -.107E-01
   0.500E+01 -.262E+01 0.115E+04   -.517E+01 0.276E+01 -.115E+04   0.273E-01 -.199E-01 -.452E+00   0.186E-04 0.329E-03 -.111E-01
   -.200E+00 -.211E+01 -.740E+03   0.209E+00 0.211E+01 0.740E+03   0.361E-02 -.191E-01 0.400E+00   0.112E-03 0.965E-05 -.776E-02
   0.252E+00 0.397E+00 -.744E+03   -.228E+00 -.395E+00 0.744E+03   -.435E-01 -.213E-01 0.306E+00   -.107E-03 0.927E-04 -.790E-02
   -.522E+01 0.265E+01 0.115E+04   0.542E+01 -.273E+01 -.115E+04   -.570E-01 -.220E-01 -.351E+00   0.304E-03 -.152E-03 -.110E-01
   -.292E+01 0.701E+00 -.741E+03   0.286E+01 -.684E+00 0.741E+03   0.448E-01 -.737E-03 0.300E+00   -.801E-04 0.971E-05 -.791E-02
   -.168E+01 0.556E+01 -.258E+04   0.163E+01 -.597E+01 0.258E+04   0.338E+00 0.532E+00 0.244E+01   -.176E-03 -.230E-03 -.311E-02
   0.443E+01 -.109E+01 -.264E+04   -.451E+01 0.109E+01 0.264E+04   -.721E-01 0.792E-01 0.981E+00   0.197E-03 -.825E-04 -.306E-02
   -.110E+01 0.109E+01 -.264E+04   0.123E+01 -.109E+01 0.264E+04   -.169E+00 -.116E+00 0.912E+00   0.132E-03 0.298E-03 -.268E-02
   0.764E-01 -.216E+01 -.263E+04   -.202E+00 0.225E+01 0.263E+04   0.147E+00 -.858E-01 0.887E+00   -.152E-03 0.802E-04 -.269E-02
   -.277E-01 0.190E+00 0.296E+04   0.132E-01 -.141E+00 -.296E+04   0.658E-01 -.527E-01 -.643E+00   0.599E-04 0.174E-04 -.623E-02
   -.344E+00 0.267E+00 0.296E+04   0.341E+00 -.204E+00 -.296E+04   -.223E-01 -.441E-01 -.769E+00   -.634E-04 0.890E-04 -.622E-02
   0.540E+01 -.280E+01 0.116E+04   -.560E+01 0.292E+01 -.116E+04   0.437E-02 -.410E-01 -.279E+00   -.301E-03 -.164E-03 -.110E-01
   -.187E+00 -.376E-02 0.296E+04   0.137E+00 -.294E-01 -.296E+04   0.256E-01 0.620E-01 -.716E+00   -.623E-04 -.213E-04 -.628E-02
 -----------------------------------------------------------------------------------------------
   -.122E-01 -.468E+00 -.551E-01   -.291E-13 -.570E-13 -.227E-11   0.528E-02 0.482E+00 0.150E+00   0.541E-04 0.119E-03 -.112E+00
 
 
 POSITION                                       TOTAL-FORCE (eV/Angst)
 -----------------------------------------------------------------------------------
      6.99103      4.01482     16.72949        -0.052974     -0.021337      0.064531
      0.12873      0.18105     21.71150         0.061851      0.140148      0.186382
      5.48250      1.03567     22.36792        -0.037068     -0.026929      0.316095
      7.55052      4.39920     21.58159         0.051621      0.053468     -0.033605
      3.73797      4.36845     22.05501         0.010442      0.006783      0.167302
      0.49969      0.73473     20.77899        -0.145440     -0.257613      0.339268
      2.79991      0.01433     12.11482         0.039908     -0.005458      1.139215
      2.81208      3.22162     14.43374         0.158395     -0.098922     -0.201228
      5.59249      3.22389     14.43970        -0.143229      0.119619     -0.459270
      5.59328      1.60728     16.71556         0.012946     -0.017682     -0.266375
      2.81170      1.60170     16.72414        -0.019629     -0.019351     -0.013940
      1.42151      0.81534     14.43376         0.140444     -0.105542     -0.288078
      4.20120      4.01391     16.71910        -0.010746      0.015298     -0.024115
      2.78804      4.78639     19.04430         0.281016      0.124914     -0.148954
      5.57988      4.79240     19.03273        -0.145248      0.076391      0.179803
      1.41442      2.38854     19.04016        -0.036066     -0.109544      0.100012
      4.18330      2.39016     19.02411         0.021506      0.004783     -0.044006
      4.19020      2.42278     12.10854         0.051754     -0.003667     -0.342565
      1.41005      2.42225     12.11334        -0.025384      0.018079     -0.082338
      4.20159      0.81610     14.43144        -0.189639      0.078414     -0.503307
      0.02194      0.01568     12.11102        -0.024460      0.028150     -0.084826
 -----------------------------------------------------------------------------------
    total drift:                               -0.006828      0.014673     -0.017045


--------------------------------------------------------------------------------------------------------



  FREE ENERGIE OF THE ION-ELECTRON SYSTEM (eV)
  ---------------------------------------------------
  free  energy   TOTEN  =      -115.32140555 eV

  energy  without entropy=     -115.30621882  energy(sigma->0) =     -115.31634331
 


--------------------------------------------------------------------------------------------------------


    POTLOK:  cpu time    0.0256: real time    0.0256


--------------------------------------------------------------------------------------------------------


     LOOP+:  cpu time  570.7811: real time  570.8691
    4ORBIT:  cpu time    0.0000: real time    0.0000

 total amount of memory used by VASP MPI-rank0   164312. kBytes
=======================================================================

   base      :      30000. kBytes
   nonlr-proj:       2359. kBytes
   fftplans  :       2967. kBytes
   grid      :       6321. kBytes
   one-center:         93. kBytes
   wavefun   :     122572. kBytes
 
  
  
 General timing and accounting informations for this job:
 ========================================================
  
                  Total CPU time used (sec):      578.516
                            User time (sec):      577.196
                          System time (sec):        1.320
                         Elapsed time (sec):      578.827
  
                   Maximum memory used (kb):      206420.
                   Average memory used (kb):           0.
  
                          Minor page faults:        87285
                          Major page faults:            0
                 Voluntary context switches:         1182
