       N       E                     dE             d eps       ncg     rms          rms(c)
DAV:   1     0.102873300849E+04    0.10287E+04   -0.58321E+04 19288   0.103E+03
DAV:   2    -0.308101566875E+02   -0.10595E+04   -0.98552E+03 24104   0.259E+02
DAV:   3    -0.121715360312E+03   -0.90905E+02   -0.84208E+02 23032   0.756E+01
DAV:   4    -0.126067510793E+03   -0.43522E+01   -0.41523E+01 25520   0.168E+01
DAV:   5    -0.126205764344E+03   -0.13825E+00   -0.13700E+00 26560   0.294E+00    0.431E+01
DAV:   6    -0.118490108834E+03    0.77157E+01   -0.35811E+01 23056   0.233E+01    0.318E+01
DAV:   7    -0.145601043588E+03   -0.27111E+02   -0.11965E+02 28108   0.593E+01    0.481E+01
DAV:   8    -0.125317876563E+03    0.20283E+02   -0.45671E+01 30248   0.445E+01    0.270E+01
DAV:   9    -0.126841711352E+03   -0.15238E+01   -0.55523E+01 27968   0.443E+01    0.284E+01
DAV:  10    -0.127099501931E+03   -0.25779E+00   -0.47528E+01 31412   0.488E+01    0.273E+01
DAV:  11    -0.117032729656E+03    0.10067E+02   -0.22225E+01 27224   0.176E+01    0.108E+01
DAV:  12    -0.117163664021E+03   -0.13093E+00   -0.58247E+00 27664   0.119E+01    0.121E+01
DAV:  13    -0.116031038918E+03    0.11326E+01   -0.55809E+00 27324   0.778E+00    0.569E+00
DAV:  14    -0.115894721204E+03    0.13632E+00   -0.17627E+00 22032   0.523E+00    0.390E+00
DAV:  15    -0.115862219463E+03    0.32502E-01   -0.94850E-02 21868   0.127E+00    0.325E+00
DAV:  16    -0.115816734546E+03    0.45485E-01   -0.71776E-02 28392   0.117E+00    0.211E+00
DAV:  17    -0.115804881487E+03    0.11853E-01   -0.82971E-02 21680   0.123E+00    0.135E+00
DAV:  18    -0.115798559164E+03    0.63223E-02   -0.72450E-02 21200   0.108E+00    0.104E+00
DAV:  19    -0.115797907210E+03    0.65195E-03   -0.96156E-03 22360   0.457E-01    0.903E-01
DAV:  20    -0.115795202524E+03    0.27047E-02   -0.38829E-03 21864   0.247E-01    0.694E-01
DAV:  21    -0.115791500291E+03    0.37022E-02   -0.78397E-03 26272   0.360E-01    0.355E-01
DAV:  22    -0.115790952444E+03    0.54785E-03   -0.11509E-03 21904   0.153E-01    0.281E-01
DAV:  23    -0.115790737652E+03    0.21479E-03   -0.47634E-04 24296   0.997E-02    0.246E-01
DAV:  24    -0.115790488501E+03    0.24915E-03   -0.32061E-04 25448   0.752E-02    0.180E-01
DAV:  25    -0.115790333672E+03    0.15483E-03   -0.42566E-04 24500   0.816E-02    0.105E-01
DAV:  26    -0.115790363113E+03   -0.29440E-04   -0.22101E-04 23532   0.634E-02    0.587E-02
DAV:  27    -0.115790446202E+03   -0.83090E-04   -0.80005E-05 19576   0.408E-02    0.333E-02
DAV:  28    -0.115790549841E+03   -0.10364E-03   -0.30889E-05 12372   0.277E-02    0.178E-02
DAV:  29    -0.115790709881E+03   -0.16004E-03   -0.32756E-05 13484   0.234E-02    0.194E-02
DAV:  30    -0.115790893950E+03   -0.18407E-03   -0.26710E-05 15288   0.143E-02    0.292E-02
DAV:  31    -0.115790953498E+03   -0.59547E-04   -0.44542E-06 12344   0.960E-03    0.276E-02
DAV:  32    -0.115791011867E+03   -0.58369E-04   -0.37661E-06 12168   0.725E-03    0.205E-02
DAV:  33    -0.115791069565E+03   -0.57699E-04   -0.35560E-06 12308   0.728E-03    0.166E-02
DAV:  34    -0.115791119045E+03   -0.49480E-04   -0.72333E-06 12276   0.110E-02    0.555E-03
DAV:  35    -0.115791134884E+03   -0.15839E-04   -0.21582E-06 11508   0.497E-03    0.350E-03
DAV:  36    -0.115791138750E+03   -0.38658E-05   -0.40738E-07 10628   0.246E-03
   1 F= -.11578579E+03 E0= -.11577326E+03  d E =-.375747E-01
