 vasp.5.4.4.18Apr17-6-g9f103f2a35 (build Apr 28 2017 10:53:45) complex          
  
 executed on             LinuxIFC date 2019.07.18  18:24:49
 running on   16 total cores
 distrk:  each k-point on   16 cores,    1 groups
 distr:  one band on NCORES_PER_BAND=   4 cores,    4 groups


--------------------------------------------------------------------------------------------------------


 INCAR:
 POTCAR:    PAW_PBE Au 04Oct2007                  
 POTCAR:    PAW_PBE C 08Apr2002                   
 POTCAR:    PAW_PBE H 15Jun2001                   
 POTCAR:    PAW_PBE Ir 06Sep2000                  
 POTCAR:    PAW_PBE Pt 04Feb2005                  
 POTCAR:    PAW_PBE Au 04Oct2007                  
   VRHFIN =Au: s1d10                                                            
   LEXCH  = PE                                                                  
   EATOM  =   926.0867 eV,   68.0654 Ry                                         
                                                                                
   TITEL  = PAW_PBE Au 04Oct2007                                                
   LULTRA =        F    use ultrasoft PP ?                                      
   IUNSCR =        1    unscreen: 0-lin 1-nonlin 2-no                           
   RPACOR =    2.330    partial core radius                                     
   POMASS =  196.966; ZVAL   =   11.000    mass and valenz                      
   RCORE  =    2.500    outmost cutoff radius                                   
   RWIGS  =    2.840; RWIGS  =    1.503    wigner-seitz radius (au A)           
   ENMAX  =  229.943; ENMIN  =  172.457 eV                                      
   ICORE  =        3    local potential                                         
   LCOR   =        T    correct aug charges                                     
   LPAW   =        T    paw PP                                                  
   EAUG   =  356.670                                                            
   DEXC   =    0.000                                                            
   RMAX   =    2.562    core radius for proj-oper                               
   RAUG   =    1.300    factor for augmentation sphere                          
   RDEP   =    2.598    radius for radial grids                                 
   RDEPT  =    2.193    core radius for aug-charge                              
                                                                                
   Atomic configuration                                                         
   16 entries                                                                   
     n  l   j            E        occ.                                          
     1  0  0.50    -80748.5001   2.0000                                         
     2  0  0.50    -14244.7466   2.0000                                         
     2  1  1.50    -12310.9591   6.0000                                         
     3  0  0.50     -3362.1768   2.0000                                         
     3  1  1.50     -2801.5463   6.0000                                         
     3  2  2.50     -2203.8206  10.0000                                         
     4  0  0.50      -729.8168   2.0000                                         
     4  1  1.50      -546.0527   6.0000                                         
     4  2  2.50      -325.7302  10.0000                                         
     4  3  3.50       -81.1472  14.0000                                         
     5  0  0.50      -108.3201   2.0000                                         
     5  1  1.50       -59.7479   6.0000                                         
     5  2  2.50        -6.8783  10.0000                                         
     6  0  0.50        -5.7602   1.0000                                         
     6  1  1.50        -6.8029   0.0000                                         
     5  3  2.50        -1.3606   0.0000                                         
   Description                                                                  
     l       E           TYP  RCUT    TYP  RCUT                                 
     2     -6.8782861     23  2.500                                             
     2     -8.2388687     23  2.500                                             
     0     -5.7601759     23  2.500                                             
     0     -0.8493231     23  2.500                                             
     1     -2.7211652     23  2.500                                             
     1     27.2116520     23  2.500                                             
     3     -1.3605826     23  2.500                                             
  local pseudopotential read in
  partial core-charges read in
  partial kinetic energy density read in
  atomic valenz-charges read in
  non local Contribution for L=           2  read in
    real space projection operators read in
  non local Contribution for L=           2  read in
    real space projection operators read in
  non local Contribution for L=           0  read in
    real space projection operators read in
  non local Contribution for L=           0  read in
    real space projection operators read in
  non local Contribution for L=           1  read in
    real space projection operators read in
  non local Contribution for L=           1  read in
    real space projection operators read in
    PAW grid and wavefunctions read in
 
   number of l-projection  operators is LMAX  =           6
   number of lm-projection operators is LMMAX =          18
 
 POTCAR:    PAW_PBE C 08Apr2002                   
   VRHFIN =C: s2p2                                                              
   LEXCH  = PE                                                                  
   EATOM  =   147.1560 eV,   10.8157 Ry                                         
                                                                                
   TITEL  = PAW_PBE C 08Apr2002                                                 
   LULTRA =        F    use ultrasoft PP ?                                      
   IUNSCR =        1    unscreen: 0-lin 1-nonlin 2-no                           
   RPACOR =    1.200    partial core radius                                     
   POMASS =   12.011; ZVAL   =    4.000    mass and valenz                      
   RCORE  =    1.500    outmost cutoff radius                                   
   RWIGS  =    1.630; RWIGS  =    0.863    wigner-seitz radius (au A)           
   ENMAX  =  400.000; ENMIN  =  300.000 eV                                      
   ICORE  =        2    local potential                                         
   LCOR   =        T    correct aug charges                                     
   LPAW   =        T    paw PP                                                  
   EAUG   =  644.873                                                            
   DEXC   =    0.000                                                            
   RMAX   =    1.529    core radius for proj-oper                               
   RAUG   =    1.300    factor for augmentation sphere                          
   RDEP   =    1.501    radius for radial grids                                 
   RDEPT  =    1.300    core radius for aug-charge                              
                                                                                
   Atomic configuration                                                         
    4 entries                                                                   
     n  l   j            E        occ.                                          
     1  0  0.50      -273.3789   2.0000                                         
     2  0  0.50       -13.7508   2.0000                                         
     2  1  0.50        -5.2854   2.0000                                         
     3  2  1.50        -5.4423   0.0000                                         
   Description                                                                  
     l       E           TYP  RCUT    TYP  RCUT                                 
     0    -13.7508458     23  1.200                                             
     0     -8.2022199     23  1.200                                             
     1     -5.2854383     23  1.500                                             
     1     34.0145650     23  1.500                                             
     2     -5.4423304      7  1.500                                             
  local pseudopotential read in
  partial core-charges read in
  partial kinetic energy density read in
  atomic valenz-charges read in
  non local Contribution for L=           0  read in
    real space projection operators read in
  non local Contribution for L=           0  read in
    real space projection operators read in
  non local Contribution for L=           1  read in
    real space projection operators read in
  non local Contribution for L=           1  read in
    real space projection operators read in
    PAW grid and wavefunctions read in
 
   number of l-projection  operators is LMAX  =           4
   number of lm-projection operators is LMMAX =           8
 
 POTCAR:    PAW_PBE H 15Jun2001                   
   VRHFIN =H: ultrasoft test                                                    
   LEXCH  = PE                                                                  
   EATOM  =    12.4884 eV,    0.9179 Ry                                         
                                                                                
   TITEL  = PAW_PBE H 15Jun2001                                                 
   LULTRA =        F    use ultrasoft PP ?                                      
   IUNSCR =        0    unscreen: 0-lin 1-nonlin 2-no                           
   RPACOR =    0.000    partial core radius                                     
   POMASS =    1.000; ZVAL   =    1.000    mass and valenz                      
   RCORE  =    1.100    outmost cutoff radius                                   
   RWIGS  =    0.700; RWIGS  =    0.370    wigner-seitz radius (au A)           
   ENMAX  =  250.000; ENMIN  =  200.000 eV                                      
   RCLOC  =    0.701    cutoff for local pot                                    
   LCOR   =        T    correct aug charges                                     
   LPAW   =        T    paw PP                                                  
   EAUG   =  400.000                                                            
   RMAX   =    1.123    core radius for proj-oper                               
   RAUG   =    1.200    factor for augmentation sphere                          
   RDEP   =    1.112    radius for radial grids                                 
   RDEPT  =    0.926    core radius for aug-charge                              
                                                                                
   Atomic configuration                                                         
    2 entries                                                                   
     n  l   j            E        occ.                                          
     1  0  0.50        -6.4927   1.0000                                         
     2  1  0.50        -3.4015   0.0000                                         
   Description                                                                  
     l       E           TYP  RCUT    TYP  RCUT                                 
     0     -6.4927494     23  1.100                                             
     0      6.8029130     23  1.100                                             
     1     -4.0817478     23  1.100                                             
  local pseudopotential read in
  atomic valenz-charges read in
  non local Contribution for L=           0  read in
    real space projection operators read in
  non local Contribution for L=           0  read in
    real space projection operators read in
  non local Contribution for L=           1  read in
    real space projection operators read in
    PAW grid and wavefunctions read in
 
   number of l-projection  operators is LMAX  =           3
   number of lm-projection operators is LMMAX =           5
 
 POTCAR:    PAW_PBE Ir 06Sep2000                  
   VRHFIN =Ir: s1d8                                                             
   LEXCH  = PE                                                                  
   EATOM  =   560.1833 eV,   41.1723 Ry                                         
                                                                                
   TITEL  = PAW_PBE Ir 06Sep2000                                                
   LULTRA =        F    use ultrasoft PP ?                                      
   IUNSCR =        1    unscreen: 0-lin 1-nonlin 2-no                           
   RPACOR =    2.250    partial core radius                                     
   POMASS =  192.220; ZVAL   =    9.000    mass and valenz                      
   RCORE  =    2.600    outmost cutoff radius                                   
   RWIGS  =    2.690; RWIGS  =    1.423    wigner-seitz radius (au A)           
   ENMAX  =  210.864; ENMIN  =  158.148 eV                                      
   RCLOC  =    1.857    cutoff for local pot                                    
   LCOR   =        T    correct aug charges                                     
   LPAW   =        T    paw PP                                                  
   EAUG   =  318.962                                                            
   DEXC   =    0.000                                                            
   RMAX   =    2.667    core radius for proj-oper                               
   RAUG   =    1.300    factor for augmentation sphere                          
   RDEP   =    2.748    radius for radial grids                                 
   RDEPT  =    2.300    core radius for aug-charge                              
                                                                                
   Atomic configuration                                                         
   16 entries                                                                   
     n  l   j            E        occ.                                          
     1  0  0.50    -76100.0449   2.0000                                         
     2  0  0.50    -13308.1683   2.0000                                         
     2  1  1.50    -11558.0021   6.0000                                         
     3  0  0.50     -3110.7274   2.0000                                         
     3  1  1.50     -2599.2109   6.0000                                         
     3  2  2.50     -2037.1515  10.0000                                         
     4  0  0.50      -661.6001   2.0000                                         
     4  1  1.50      -493.8981   6.0000                                         
     4  2  2.50      -288.1909  10.0000                                         
     4  3  3.50       -59.5718  14.0000                                         
     5  0  0.50       -95.3879   2.0000                                         
     5  1  1.50       -52.2747   6.0000                                         
     5  2  2.50        -5.4180   8.0000                                         
     6  0  0.50        -5.5479   1.0000                                         
     6  1  1.50        -6.8029   0.0000                                         
     5  3  2.50        -1.3606   0.0000                                         
   Description                                                                  
     l       E           TYP  RCUT    TYP  RCUT                                 
     2     -5.4179967     23  2.600                                             
     2     -6.7785793     23  2.600                                             
     0     -5.5478636     23  2.600                                             
     0      2.2542272     23  2.600                                             
     1     -2.7211652     23  2.600                                             
     1     20.4087390     23  2.600                                             
  local pseudopotential read in
  partial core-charges read in
  partial kinetic energy density read in
  atomic valenz-charges read in
  non local Contribution for L=           2  read in
    real space projection operators read in
  non local Contribution for L=           2  read in
    real space projection operators read in
  non local Contribution for L=           0  read in
    real space projection operators read in
  non local Contribution for L=           0  read in
    real space projection operators read in
  non local Contribution for L=           1  read in
    real space projection operators read in
  non local Contribution for L=           1  read in
    real space projection operators read in
    PAW grid and wavefunctions read in
 
   number of l-projection  operators is LMAX  =           6
   number of lm-projection operators is LMMAX =          18
 
 POTCAR:    PAW_PBE Pt 04Feb2005                  
   VRHFIN =Pt: s1d9                                                             
   LEXCH  = PE                                                                  
   EATOM  =   729.1176 eV,   53.5886 Ry                                         
                                                                                
   TITEL  = PAW_PBE Pt 04Feb2005                                                
   LULTRA =        F    use ultrasoft PP ?                                      
   IUNSCR =        1    unscreen: 0-lin 1-nonlin 2-no                           
   RPACOR =    2.330    partial core radius                                     
   POMASS =  195.080; ZVAL   =   10.000    mass and valenz                      
   RCORE  =    2.600    outmost cutoff radius                                   
   RWIGS  =    2.750; RWIGS  =    1.455    wigner-seitz radius (au A)           
   ENMAX  =  230.283; ENMIN  =  172.712 eV                                      
   ICORE  =        3    local potential                                         
   LCOR   =        T    correct aug charges                                     
   LPAW   =        T    paw PP                                                  
   EAUG   =  358.966                                                            
   DEXC   =    0.000                                                            
   RMAX   =    2.658    core radius for proj-oper                               
   RAUG   =    1.300    factor for augmentation sphere                          
   RDEP   =    2.761    radius for radial grids                                 
   RDEPT  =    2.203    core radius for aug-charge                              
                                                                                
   Atomic configuration                                                         
   16 entries                                                                   
     n  l   j            E        occ.                                          
     1  0  0.50    -78401.1885   2.0000                                         
     2  0  0.50    -13770.7750   2.0000                                         
     2  1  1.50    -11931.0468   6.0000                                         
     3  0  0.50     -3234.7234   2.0000                                         
     3  1  1.50     -2699.2216   6.0000                                         
     3  2  2.50     -2119.5714  10.0000                                         
     4  0  0.50      -695.1528   2.0000                                         
     4  1  1.50      -519.6034   6.0000                                         
     4  2  2.50      -306.6786  10.0000                                         
     4  3  3.50       -70.1041  14.0000                                         
     5  0  0.50      -101.7747   2.0000                                         
     5  1  1.50       -55.9873   6.0000                                         
     5  2  2.50        -6.1423   9.0000                                         
     6  0  0.50        -5.6573   1.0000                                         
     6  1  1.50        -6.8029   0.0000                                         
     5  3  2.50        -1.3606   0.0000                                         
   Description                                                                  
     l       E           TYP  RCUT    TYP  RCUT                                 
     2     -6.1423404     23  2.500                                             
     2     -7.5029230     23  2.500                                             
     0     -5.6573207     23  2.500                                             
     0      0.7416693     23  2.500                                             
     1     -2.7211652     23  2.600                                             
     1     20.4087390     23  2.600                                             
     3     -1.3605826     23  2.500                                             
  local pseudopotential read in
  partial core-charges read in
  partial kinetic energy density read in
  atomic valenz-charges read in
  non local Contribution for L=           2  read in
    real space projection operators read in
  non local Contribution for L=           2  read in
    real space projection operators read in
  non local Contribution for L=           0  read in
    real space projection operators read in
  non local Contribution for L=           0  read in
    real space projection operators read in
  non local Contribution for L=           1  read in
    real space projection operators read in
  non local Contribution for L=           1  read in
    real space projection operators read in
    PAW grid and wavefunctions read in
 
   number of l-projection  operators is LMAX  =           6
   number of lm-projection operators is LMMAX =          18
 
 Optimization of the real space projectors (new method)

 maximal supplied QI-value         = 15.12
 optimisation between [QCUT,QGAM] = [  9.52, 19.05] = [ 25.40,101.61] Ry 
 Optimized for a Real-space Cutoff    1.57 Angstroem

   l    n(q)    QCUT    max X(q) W(low)/X(q) W(high)/X(q)  e(spline) 
   2      8     9.524    60.898    0.38E-03    0.43E-04    0.84E-07
   2      8     9.524    58.894    0.38E-03    0.47E-04    0.88E-07
   0      9     9.524   109.617    0.60E-04    0.64E-04    0.80E-07
   0      9     9.524    75.026    0.59E-04    0.62E-04    0.78E-07
   1      8     9.524    16.344    0.99E-04    0.18E-03    0.87E-07
   1      8     9.524    10.160    0.78E-04    0.15E-03    0.74E-07
 Optimization of the real space projectors (new method)

 maximal supplied QI-value         = 25.13
 optimisation between [QCUT,QGAM] = [  9.55, 19.10] = [ 25.54,102.17] Ry 
 Optimized for a Real-space Cutoff    1.39 Angstroem

   l    n(q)    QCUT    max X(q) W(low)/X(q) W(high)/X(q)  e(spline) 
   0      8     9.551   115.676    0.39E-03    0.54E-03    0.29E-06
   0      8     9.551    87.132    0.39E-03    0.54E-03    0.28E-06
   1      7     9.551     4.429    0.35E-03    0.51E-04    0.29E-06
   1      7     9.551     2.733    0.22E-03    0.42E-04    0.31E-06
 Optimization of the real space projectors (new method)

 maximal supplied QI-value         = 34.20
 optimisation between [QCUT,QGAM] = [  9.58, 19.15] = [ 25.68,102.74] Ry 
 Optimized for a Real-space Cutoff    1.31 Angstroem

   l    n(q)    QCUT    max X(q) W(low)/X(q) W(high)/X(q)  e(spline) 
   0      7     9.577    19.460    0.33E-03    0.12E-03    0.35E-06
   0      7     9.577    12.209    0.33E-03    0.11E-03    0.33E-06
   1      7     9.577     4.655    0.39E-03    0.14E-02    0.33E-06
 Optimization of the real space projectors (new method)

 maximal supplied QI-value         = 14.36
 optimisation between [QCUT,QGAM] = [  9.48, 19.10] = [ 25.16,102.17] Ry 
 Optimized for a Real-space Cutoff    1.57 Angstroem

   l    n(q)    QCUT    max X(q) W(low)/X(q) W(high)/X(q)  e(spline) 
   2      8     9.479   134.116    0.18E-03    0.75E-03    0.26E-06
   2      8     9.479   130.192    0.18E-03    0.75E-03    0.27E-06
   0      9     9.479    60.310    0.39E-03    0.24E-03    0.63E-07
   0      9     9.479    39.218    0.36E-03    0.22E-03    0.59E-07
   1      8     9.479    18.439    0.20E-03    0.15E-03    0.16E-06
   1      8     9.479    12.760    0.16E-03    0.11E-03    0.13E-06
 Optimization of the real space projectors (new method)

 maximal supplied QI-value         = 14.36
 optimisation between [QCUT,QGAM] = [  9.48, 19.10] = [ 25.16,102.17] Ry 
 Optimized for a Real-space Cutoff    1.57 Angstroem

   l    n(q)    QCUT    max X(q) W(low)/X(q) W(high)/X(q)  e(spline) 
   2      8     9.479    66.195    0.35E-03    0.53E-04    0.87E-07
   2      8     9.479    64.643    0.35E-03    0.57E-04    0.91E-07
   0      9     9.479    95.520    0.50E-04    0.62E-04    0.81E-07
   0      9     9.479    63.403    0.49E-04    0.60E-04    0.78E-07
   1      8     9.479    19.961    0.10E-03    0.87E-04    0.11E-06
   1      8     9.479    13.289    0.88E-04    0.71E-04    0.97E-07
  PAW_PBE Au 04Oct2007                  :
 energy of atom  1       EATOM= -926.0867
 kinetic energy error for atom=    0.0152 (will be added to EATOM!!)
  PAW_PBE C 08Apr2002                   :
 energy of atom  2       EATOM= -147.1560
 kinetic energy error for atom=    0.0854 (will be added to EATOM!!)
  PAW_PBE H 15Jun2001                   :
 energy of atom  3       EATOM=  -12.4884
 kinetic energy error for atom=    0.0203 (will be added to EATOM!!)
  PAW_PBE Ir 06Sep2000                  :
 energy of atom  4       EATOM= -560.1833
 kinetic energy error for atom=    0.0056 (will be added to EATOM!!)
  PAW_PBE Pt 04Feb2005                  :
 energy of atom  5       EATOM= -729.1176
 kinetic energy error for atom=    0.0144 (will be added to EATOM!!)
 
 
 POSCAR: Au  C  H Ir Pt                          
  positions in cartesian coordinates
  No initial velocities read in
 exchange correlation table for  LEXCH =        8
   RHO(1)=    0.500       N(1)  =     2000
   RHO(2)=  100.500       N(2)  =     4000
 


--------------------------------------------------------------------------------------------------------


 ion  position               nearest neighbor table
   1  0.516  0.482  0.617-  13 2.75   8 2.78   9 2.78   9 2.78  10 2.78   8 2.79  11 2.79  20 2.80
                            10 2.80
   2  0.003  0.979  0.693-   4 1.10   5 1.10   6 1.10  10 2.07
   3  0.035  0.465  0.671-   8 1.55
   4  0.922  0.192  0.705-   2 1.10
   5  0.866  0.900  0.704-   2 1.10
   6  0.216  0.843  0.705-   2 1.10
   7  0.497  0.001  0.392-  12 2.76  19 2.77  18 2.78  18 2.78  19 2.79  12 2.79  16 2.82  14 2.84
                            17 2.84
   8  0.016  0.482  0.621-   3 1.55   1 2.78   9 2.78   9 2.78  10 2.78   1 2.79  10 2.79  20 2.86
                            13 2.87  21 2.88
   9  0.516  0.982  0.617-  21 2.75  11 2.77   1 2.78   8 2.78  10 2.78   1 2.78   8 2.78  10 2.80
                            20 2.81
  10  0.014  0.983  0.626-   2 2.07   9 2.78   8 2.78   1 2.78   8 2.79   1 2.80   9 2.80  11 2.97
                            21 2.99  13 3.02
  11  0.337  0.825  0.544-  13 2.75  21 2.75   9 2.77  20 2.78  20 2.78   1 2.79  21 2.80  13 2.80
                            15 2.81  17 2.83  14 2.84  10 2.97
  12  0.000  1.000  0.393-   7 2.76  18 2.76  19 2.78  19 2.78  18 2.79   7 2.79  16 2.81  17 2.84
                            15 2.86
  13  0.843  0.321  0.544-  11 2.75   1 2.75  21 2.77  20 2.77  17 2.78  20 2.79  21 2.79  11 2.80
                            16 2.84  14 2.86   8 2.87  10 3.02
  14  0.669  0.663  0.468-  15 2.78  16 2.78  16 2.78  17 2.78  17 2.78  15 2.78  19 2.81  18 2.82
                             7 2.84  11 2.84  21 2.84  13 2.86
  15  0.168  0.663  0.469-  17 2.78  16 2.78  14 2.78  14 2.78  17 2.78  16 2.78  21 2.78  20 2.80
                            11 2.81  18 2.84  19 2.85  12 2.86
  16  0.669  0.163  0.468-  17 2.78  15 2.78  14 2.78  14 2.78  15 2.78  17 2.78  12 2.81  20 2.81
                             7 2.82  18 2.83  13 2.84  21 2.86
  17  0.168  0.163  0.469-  16 2.78  15 2.78  14 2.78  14 2.78  15 2.78  16 2.78  13 2.78  20 2.78
                            11 2.83   7 2.84  12 2.84  19 2.86
  18  0.497  0.502  0.392-  12 2.76  19 2.77   7 2.78   7 2.78  19 2.79  12 2.79  14 2.82  16 2.83
                            15 2.84
  19  0.000  0.500  0.393-  18 2.77   7 2.77  12 2.78  12 2.78   7 2.79  18 2.79  14 2.81  15 2.85
                            17 2.86
  20  0.341  0.323  0.543-  21 2.77  13 2.77  11 2.78  11 2.78  17 2.78  13 2.79  21 2.79   1 2.80
                            15 2.80  16 2.81   9 2.81   8 2.86
  21  0.843  0.823  0.544-   9 2.75  11 2.75  13 2.77  20 2.77  15 2.78  20 2.79  13 2.79  11 2.80
                            14 2.84  16 2.86   8 2.88  10 2.99
 
  LATTYP: Found a hexagonal cell.
 ALAT       =     5.5578593001
 C/A-ratio  =     5.5429542221
  
  Lattice vectors:
  
 A1 = (   2.7789296501,  -4.8132473446,   0.0000000000)
 A2 = (  -5.5578593001,   0.0000000000,   0.0000000000)
 A3 = (   0.0000000000,   0.0000000000, -30.8069596737)


Analysis of symmetry for initial positions (statically):
=====================================================================
 Subroutine PRICEL returns:
 Original cell was already a primitive cell.
 

 Routine SETGRP: Setting up the symmetry group for a 
 hexagonal supercell.


 Subroutine GETGRP returns: Found  1 space group operations
 (whereof  1 operations were pure point group operations)
 out of a pool of 24 trial point group operations.


The static configuration has the point symmetry C_1 .


Analysis of symmetry for dynamics (positions and initial velocities):
=====================================================================
 Subroutine PRICEL returns:
 Original cell was already a primitive cell.
 

 Routine SETGRP: Setting up the symmetry group for a 
 hexagonal supercell.


 Subroutine GETGRP returns: Found  1 space group operations
 (whereof  1 operations were pure point group operations)
 out of a pool of 24 trial point group operations.


The dynamic configuration has the point symmetry C_1 .


 Subroutine INISYM returns: Found  1 space group operations
 (whereof  1 operations are pure point group operations),
 and found     1 'primitive' translations

 
 
 KPOINTS: 0.2.Ir1.Au15                            

Automatic generation of k-mesh.
Space group operators:
 irot       det(A)        alpha          n_x          n_y          n_z        tau_x        tau_y        tau_z
    1     1.000000     0.000001     1.000000     0.000000     0.000000     0.000000     0.000000     0.000000
 
 Subroutine IBZKPT returns following result:
 ===========================================
 
 Found     96 irreducible k-points:
 
 Following reciprocal coordinates:
            Coordinates               Weight
  0.062500  0.062500  0.000000     16.000000
  0.000000  0.062500  0.000000     16.000000
 -0.062500  0.000000  0.000000     16.000000
  0.187500  0.062500  0.000000     16.000000
  0.125000  0.187500  0.000000     16.000000
 -0.062500  0.125000  0.000000     16.000000
  0.125000 -0.062500  0.000000     16.000000
 -0.062500 -0.187500  0.000000     16.000000
 -0.187500 -0.125000  0.000000     16.000000
  0.312500  0.062500  0.000000     16.000000
  0.250000  0.312500  0.000000     16.000000
 -0.062500  0.250000  0.000000     16.000000
  0.250000 -0.062500  0.000000     16.000000
 -0.062500 -0.312500  0.000000     16.000000
 -0.312500 -0.250000  0.000000     16.000000
  0.437500  0.062500  0.000000     16.000000
  0.375000  0.437500  0.000000     16.000000
 -0.062500  0.375000  0.000000     16.000000
  0.375000 -0.062500  0.000000     16.000000
 -0.062500 -0.437500  0.000000     16.000000
 -0.437500 -0.375000  0.000000     16.000000
 -0.437500  0.062500  0.000000     16.000000
  0.500000 -0.437500  0.000000     16.000000
 -0.062500  0.500000  0.000000     16.000000
  0.500000 -0.062500  0.000000     16.000000
 -0.062500  0.437500  0.000000     16.000000
  0.437500  0.500000  0.000000     16.000000
 -0.312500  0.062500  0.000000     16.000000
 -0.375000 -0.312500  0.000000     16.000000
 -0.062500 -0.375000  0.000000     16.000000
 -0.375000 -0.062500  0.000000     16.000000
 -0.062500  0.312500  0.000000     16.000000
  0.312500  0.375000  0.000000     16.000000
 -0.187500  0.062500  0.000000     16.000000
 -0.250000 -0.187500  0.000000     16.000000
 -0.062500 -0.250000  0.000000     16.000000
 -0.250000 -0.062500  0.000000     16.000000
 -0.062500  0.187500  0.000000     16.000000
  0.187500  0.250000  0.000000     16.000000
 -0.062500  0.062500  0.000000     16.000000
 -0.125000 -0.062500  0.000000     16.000000
 -0.062500 -0.125000  0.000000     16.000000
  0.187500  0.187500  0.000000     16.000000
  0.000000  0.187500  0.000000     16.000000
 -0.187500  0.000000  0.000000     16.000000
  0.312500  0.187500  0.000000     16.000000
  0.125000  0.312500  0.000000     16.000000
 -0.187500  0.125000  0.000000     16.000000
  0.125000 -0.187500  0.000000     16.000000
 -0.187500 -0.312500  0.000000     16.000000
 -0.312500 -0.125000  0.000000     16.000000
  0.437500  0.187500  0.000000     16.000000
  0.250000  0.437500  0.000000     16.000000
 -0.187500  0.250000  0.000000     16.000000
  0.250000 -0.187500  0.000000     16.000000
 -0.187500 -0.437500  0.000000     16.000000
 -0.437500 -0.250000  0.000000     16.000000
 -0.437500  0.187500  0.000000     16.000000
  0.375000 -0.437500  0.000000     16.000000
 -0.187500  0.375000  0.000000     16.000000
  0.375000 -0.187500  0.000000     16.000000
 -0.187500  0.437500  0.000000     16.000000
  0.437500 -0.375000  0.000000     16.000000
 -0.312500  0.187500  0.000000     16.000000
  0.500000 -0.312500  0.000000     16.000000
 -0.187500  0.500000  0.000000     16.000000
  0.500000 -0.187500  0.000000     16.000000
 -0.187500  0.312500  0.000000     16.000000
  0.312500  0.500000  0.000000     16.000000
 -0.187500  0.187500  0.000000     16.000000
 -0.375000 -0.187500  0.000000     16.000000
 -0.187500 -0.375000  0.000000     16.000000
  0.312500  0.312500  0.000000     16.000000
  0.000000  0.312500  0.000000     16.000000
 -0.312500  0.000000  0.000000     16.000000
  0.437500  0.312500  0.000000     16.000000
  0.125000  0.437500  0.000000     16.000000
 -0.312500  0.125000  0.000000     16.000000
  0.125000 -0.312500  0.000000     16.000000
 -0.312500 -0.437500  0.000000     16.000000
 -0.437500 -0.125000  0.000000     16.000000
 -0.437500  0.312500  0.000000     16.000000
  0.250000 -0.437500  0.000000     16.000000
 -0.312500  0.250000  0.000000     16.000000
  0.250000 -0.312500  0.000000     16.000000
 -0.312500  0.437500  0.000000     16.000000
  0.437500 -0.250000  0.000000     16.000000
 -0.312500  0.312500  0.000000     16.000000
  0.375000 -0.312500  0.000000     16.000000
 -0.312500  0.375000  0.000000     16.000000
  0.437500  0.437500  0.000000     16.000000
  0.000000  0.437500  0.000000     16.000000
 -0.437500 -0.000000  0.000000     16.000000
 -0.437500  0.437500  0.000000     16.000000
  0.125000 -0.437500  0.000000     16.000000
 -0.437500  0.125000  0.000000     16.000000
 
 Following cartesian coordinates:
            Coordinates               Weight
  0.011245  0.006492  0.000000     16.000000
  0.000000  0.012985  0.000000     16.000000
 -0.011245  0.006492  0.000000     16.000000
  0.033736 -0.006492  0.000000     16.000000
  0.022491  0.025970  0.000000     16.000000
 -0.011245  0.032462  0.000000     16.000000
  0.022491 -0.025970  0.000000     16.000000
 -0.011245 -0.032462  0.000000     16.000000
 -0.033736 -0.006492  0.000000     16.000000
  0.056227 -0.019477  0.000000     16.000000
  0.044981  0.038955  0.000000     16.000000
 -0.011245  0.058432  0.000000     16.000000
  0.044981 -0.038955  0.000000     16.000000
 -0.011245 -0.058432  0.000000     16.000000
 -0.056227 -0.019477  0.000000     16.000000
  0.078717 -0.032462  0.000000     16.000000
  0.067472  0.051940  0.000000     16.000000
 -0.011245  0.084402  0.000000     16.000000
  0.067472 -0.051940  0.000000     16.000000
 -0.011245 -0.084402  0.000000     16.000000
 -0.078717 -0.032462  0.000000     16.000000
 -0.078717  0.058432  0.000000     16.000000
  0.089963 -0.142835  0.000000     16.000000
 -0.011245  0.110372  0.000000     16.000000
  0.089963 -0.064925  0.000000     16.000000
 -0.011245  0.097387  0.000000     16.000000
  0.078717  0.058432  0.000000     16.000000
 -0.056227  0.045447  0.000000     16.000000
 -0.067472 -0.025970  0.000000     16.000000
 -0.011245 -0.071417  0.000000     16.000000
 -0.067472  0.025970  0.000000     16.000000
 -0.011245  0.071417  0.000000     16.000000
  0.056227  0.045447  0.000000     16.000000
 -0.033736  0.032462  0.000000     16.000000
 -0.044981 -0.012985  0.000000     16.000000
 -0.011245 -0.045447  0.000000     16.000000
 -0.044981  0.012985  0.000000     16.000000
 -0.011245  0.045447  0.000000     16.000000
  0.033736  0.032462  0.000000     16.000000
 -0.011245  0.019477  0.000000     16.000000
 -0.022491  0.000000  0.000000     16.000000
 -0.011245 -0.019477  0.000000     16.000000
  0.033736  0.019477  0.000000     16.000000
  0.000000  0.038955  0.000000     16.000000
 -0.033736  0.019477  0.000000     16.000000
  0.056227  0.006492  0.000000     16.000000
  0.022491  0.051940  0.000000     16.000000
 -0.033736  0.045447  0.000000     16.000000
  0.022491 -0.051940  0.000000     16.000000
 -0.033736 -0.045447  0.000000     16.000000
 -0.056227  0.006492  0.000000     16.000000
  0.078717 -0.006492  0.000000     16.000000
  0.044981  0.064925  0.000000     16.000000
 -0.033736  0.071417  0.000000     16.000000
  0.044981 -0.064925  0.000000     16.000000
 -0.033736 -0.071417  0.000000     16.000000
 -0.078717 -0.006492  0.000000     16.000000
 -0.078717  0.084402  0.000000     16.000000
  0.067472 -0.129850  0.000000     16.000000
 -0.033736  0.097387  0.000000     16.000000
  0.067472 -0.077910  0.000000     16.000000
 -0.033736  0.110372  0.000000     16.000000
  0.078717 -0.123357  0.000000     16.000000
 -0.056227  0.071417  0.000000     16.000000
  0.089963 -0.116865  0.000000     16.000000
 -0.033736  0.123357  0.000000     16.000000
  0.089963 -0.090895  0.000000     16.000000
 -0.033736  0.084402  0.000000     16.000000
  0.056227  0.071417  0.000000     16.000000
 -0.033736  0.058432  0.000000     16.000000
 -0.067472  0.000000  0.000000     16.000000
 -0.033736 -0.058432  0.000000     16.000000
  0.056227  0.032462  0.000000     16.000000
  0.000000  0.064925  0.000000     16.000000
 -0.056227  0.032462  0.000000     16.000000
  0.078717  0.019477  0.000000     16.000000
  0.022491  0.077910  0.000000     16.000000
 -0.056227  0.058432  0.000000     16.000000
  0.022491 -0.077910  0.000000     16.000000
 -0.056227 -0.058432  0.000000     16.000000
 -0.078717  0.019477  0.000000     16.000000
 -0.078717  0.110372  0.000000     16.000000
  0.044981 -0.116865  0.000000     16.000000
 -0.056227  0.084402  0.000000     16.000000
  0.044981 -0.090895  0.000000     16.000000
 -0.056227  0.123357  0.000000     16.000000
  0.078717 -0.097387  0.000000     16.000000
 -0.056227  0.097387  0.000000     16.000000
  0.067472 -0.103880  0.000000     16.000000
 -0.056227  0.110372  0.000000     16.000000
  0.078717  0.045447  0.000000     16.000000
  0.000000  0.090895  0.000000     16.000000
 -0.078717  0.045447  0.000000     16.000000
 -0.078717  0.136342  0.000000     16.000000
  0.022491 -0.103880  0.000000     16.000000
 -0.078717  0.071417  0.000000     16.000000
 


--------------------------------------------------------------------------------------------------------




 Dimension of arrays:
   k-points           NKPTS =     96   k-points in BZ     NKDIM =     96   number of bands    NBANDS=    100
   number of dos      NEDOS =    301   number of ions     NIONS =     21
   non local maximal  LDIM  =      6   non local SUM 2l+1 LMDIM =     18
   total plane-waves  NPLWV = 112896
   max r-space proj   IRMAX =   2252   max aug-charges    IRDMAX=  10104
   dimension x,y,z NGX =    28 NGY =   28 NGZ =  144
   dimension x,y,z NGXF=    56 NGYF=   56 NGZF=  288
   support grid    NGXF=    56 NGYF=   56 NGZF=  288
   ions per type =               1   1   4   1  14
   NGX,Y,Z   is equivalent  to a cutoff of   8.38,  8.38,  7.77 a.u.
   NGXF,Y,Z  is equivalent  to a cutoff of  16.75, 16.75, 15.54 a.u.

 SYSTEM =  0.2.Ir1.Au15                            
 POSCAR =  Au  C  H Ir Pt                          

 Startparameter for this run:
   NWRITE =      2    write-flag & timer
   PREC   = normal    normal or accurate (medium, high low for compatibility)
   ISTART =      0    job   : 0-new  1-cont  2-samecut
   ICHARG =      2    charge: 1-file 2-atom 10-const
   ISPIN  =      1    spin polarized calculation?
   LNONCOLLINEAR =      F non collinear calculations
   LSORBIT =      F    spin-orbit coupling
   INIWAV =      1    electr: 0-lowe 1-rand  2-diag
   LASPH  =      F    aspherical Exc in radial PAW
   METAGGA=      F    non-selfconsistent MetaGGA calc.

 Electronic Relaxation 1
   ENCUT  =  350.0 eV  25.72 Ry    5.07 a.u.   8.48  8.48 46.99*2*pi/ulx,y,z
   ENINI  =  350.0     initial cutoff
   ENAUG  =  644.9 eV  augmentation charge cutoff
   NELM   =   1000;   NELMIN=  5; NELMDL= -5     # of ELM steps 
   EDIFF  = 0.1E-04   stopping-criterion for ELM
   LREAL  =      T    real-space projection
   NLSPLINE    = F    spline interpolate recip. space projectors
   LCOMPAT=      F    compatible to vasp.4.4
   GGA_COMPAT  = T    GGA compatible to vasp.4.4-vasp.4.6
   LMAXPAW     = -100 max onsite density
   LMAXMIX     =    2 max onsite mixed and CHGCAR
   VOSKOWN=      0    Vosko Wilk Nusair interpolation
   ROPT   =   -0.00050  -0.00050  -0.00050  -0.00050
   ROPT   =   -0.00050
 Ionic relaxation
   EDIFFG = 0.1E-03   stopping-criterion for IOM
   NSW    =      0    number of steps for IOM
   NBLOCK =      1;   KBLOCK =      1    inner block; outer block 
   IBRION =     -1    ionic relax: 0-MD 1-quasi-New 2-CG
   NFREE  =      0    steps in history (QN), initial steepest desc. (CG)
   ISIF   =      2    stress and relaxation
   IWAVPR =     10    prediction:  0-non 1-charg 2-wave 3-comb
   ISYM   =      2    0-nonsym 1-usesym 2-fastsym
   LCORR  =      T    Harris-Foulkes like correction to forces

   POTIM  = 0.5000    time-step for ionic-motion
   TEIN   =    0.0    initial temperature
   TEBEG  =    0.0;   TEEND  =   0.0 temperature during run
   SMASS  =  -3.00    Nose mass-parameter (am)
   estimated Nose-frequenzy (Omega)   =  0.10E-29 period in steps =****** mass=  -0.706E-27a.u.
   SCALEE = 1.0000    scale energy and forces
   NPACO  =    256;   APACO  = 16.0  distance and # of slots for P.C.
   PSTRESS=    0.0 pullay stress

  Mass of Ions in am
   POMASS = 196.97 12.01  1.00192.22195.08
  Ionic Valenz
   ZVAL   =  11.00  4.00  1.00  9.00 10.00
  Atomic Wigner-Seitz radii
   RWIGS  =  -1.00 -1.00 -1.00 -1.00 -1.00
  virtual crystal weights 
   VCA    =   1.00  1.00  1.00  1.00  1.00
   NELECT =     168.0000    total number of electrons
   NUPDOWN=      -1.0000    fix difference up-down

 DOS related values:
   EMIN   =  10.00;   EMAX   =-10.00  energy-range for DOS
   EFERMI =   0.00
   ISMEAR =     1;   SIGMA  =   0.20  broadening in eV -4-tet -1-fermi 0-gaus

 Electronic relaxation 2 (details)
   IALGO  =     38    algorithm
   LDIAG  =      T    sub-space diagonalisation (order eigenvalues)
   LSUBROT=      F    optimize rotation matrix (better conditioning)
   TURBO    =      0    0=normal 1=particle mesh
   IRESTART =      0    0=no restart 2=restart with 2 vectors
   NREBOOT  =      0    no. of reboots
   NMIN     =      0    reboot dimension
   EREF     =   0.00    reference energy to select bands
   IMIX   =      4    mixing-type and parameters
     AMIX     =   0.40;   BMIX     =  1.00
     AMIX_MAG =   1.60;   BMIX_MAG =  1.00
     AMIN     =   0.10
     WC   =   100.;   INIMIX=   1;  MIXPRE=   1;  MAXMIX= -45

 Intra band minimization:
   WEIMIN = 0.0000     energy-eigenvalue tresh-hold
   EBREAK =  0.25E-07  absolut break condition
   DEPER  =   0.30     relativ break condition  

   TIME   =   0.40     timestep for ELM

  volume/ion in A,a.u.               =      39.24       264.83
  Fermi-wavevector in a.u.,A,eV,Ry     =   0.963488  1.820729 12.630418  0.928310
  Thomas-Fermi vector in A             =   2.093038
 
 Write flags
   LWAVE        =      F    write WAVECAR
   LDOWNSAMPLE  =      F    k-point downsampling of WAVECAR
   LCHARG       =      F    write CHGCAR
   LVTOT        =      F    write LOCPOT, total local potential
   LVHAR        =      F    write LOCPOT, Hartree potential only
   LELF         =      F    write electronic localiz. function (ELF)
   LORBIT       =      0    0 simple, 1 ext, 2 COOP (PROOUT), +10 PAW based schemes


 Dipole corrections
   LMONO  =      F    monopole corrections only (constant potential shift)
   LDIPOL =      F    correct potential (dipole corrections)
   IDIPOL =      3    1-x, 2-y, 3-z, 4-all directions 
   EPSILON=  1.0000000 bulk dielectric constant

 Exchange correlation treatment:
   GGA     =    --    GGA type
   LEXCH   =     8    internal setting for exchange type
   VOSKOWN=      0    Vosko Wilk Nusair interpolation
   LHFCALC =     F    Hartree Fock is set to
   LHFONE  =     F    Hartree Fock one center treatment
   AEXX    =    0.0000 exact exchange contribution

 Linear response parameters
   LEPSILON=     F    determine dielectric tensor
   LRPA    =     F    only Hartree local field effects (RPA)
   LNABLA  =     F    use nabla operator in PAW spheres
   LVEL    =     F    velocity operator in full k-point grid
   LINTERFAST=   F  fast interpolation
   KINTER  =     0    interpolate to denser k-point grid
   CSHIFT  =0.1000    complex shift for real part using Kramers Kronig
   OMEGAMAX=  -1.0    maximum frequency
   DEG_THRESHOLD= 0.2000000E-02 threshold for treating states as degnerate
   RTIME   =   -0.100 relaxation time in fs
  (WPLASMAI=    0.000 imaginary part of plasma frequency in eV, 0.658/RTIME)
   DFIELD  = 0.0000000 0.0000000 0.0000000 field for delta impulse in time
 
 Orbital magnetization related:
   ORBITALMAG=     F  switch on orbital magnetization
   LCHIMAG   =     F  perturbation theory with respect to B field
   DQ        =  0.001000  dq finite difference perturbation B field
   LLRAUG    =     F  two centre corrections for induced B field



--------------------------------------------------------------------------------------------------------


 Static calculation
 charge density and potential will be updated during run
 non-spin polarized calculation
 Variant of blocked Davidson
 Davidson routine will perform the subspace rotation
 perform sub-space diagonalisation
    after iterative eigenvector-optimisation
 modified Broyden-mixing scheme, WC =      100.0
 initial mixing is a Kerker type mixing with AMIX =  0.4000 and BMIX =      1.0000
 Hartree-type preconditioning will be used
 using additional bands           16
 real space projection scheme for non local part
 use partial core corrections
 calculate Harris-corrections to forces 
   (improved forces if not selfconsistent)
 use gradient corrections 
 use of overlap-Matrix (Vanderbilt PP)
 Methfessel and Paxton  Order N= 1 SIGMA  =   0.20


--------------------------------------------------------------------------------------------------------


  energy-cutoff  :      350.00
  volume of cell :      824.13
      direct lattice vectors                 reciprocal lattice vectors
     5.557859300  0.000000000  0.000000000     0.179925390 -0.103879972  0.000000000
     2.778929650  4.813247345  0.000000000     0.000000000  0.207759944  0.000000000
     0.000000000  0.000000000 30.806959674     0.000000000  0.000000000  0.032460198

  length of vectors
     5.557859300  5.557859300 30.806959674     0.207759944  0.207759944  0.032460198


 
 k-points in units of 2pi/SCALE and weight: 0.2.Ir1.Au15                            
   0.01124534  0.00649250  0.00000000       0.010
   0.00000000  0.01298500  0.00000000       0.010
  -0.01124534  0.00649250  0.00000000       0.010
   0.03373601 -0.00649250  0.00000000       0.010
   0.02249067  0.02596999  0.00000000       0.010
  -0.01124534  0.03246249  0.00000000       0.010
   0.02249067 -0.02596999  0.00000000       0.010
  -0.01124534 -0.03246249  0.00000000       0.010
  -0.03373601 -0.00649250  0.00000000       0.010
   0.05622668 -0.01947749  0.00000000       0.010
   0.04498135  0.03895499  0.00000000       0.010
  -0.01124534  0.05843248  0.00000000       0.010
   0.04498135 -0.03895499  0.00000000       0.010
  -0.01124534 -0.05843248  0.00000000       0.010
  -0.05622668 -0.01947749  0.00000000       0.010
   0.07871736 -0.03246249  0.00000000       0.010
   0.06747202  0.05193999  0.00000000       0.010
  -0.01124534  0.08440248  0.00000000       0.010
   0.06747202 -0.05193999  0.00000000       0.010
  -0.01124534 -0.08440248  0.00000000       0.010
  -0.07871736 -0.03246249  0.00000000       0.010
  -0.07871736  0.05843248  0.00000000       0.010
   0.08996269 -0.14283496  0.00000000       0.010
  -0.01124534  0.11037247  0.00000000       0.010
   0.08996269 -0.06492498  0.00000000       0.010
  -0.01124534  0.09738747  0.00000000       0.010
   0.07871736  0.05843248  0.00000000       0.010
  -0.05622668  0.04544749  0.00000000       0.010
  -0.06747202 -0.02596999  0.00000000       0.010
  -0.01124534 -0.07141748  0.00000000       0.010
  -0.06747202  0.02596999  0.00000000       0.010
  -0.01124534  0.07141748  0.00000000       0.010
   0.05622668  0.04544749  0.00000000       0.010
  -0.03373601  0.03246249  0.00000000       0.010
  -0.04498135 -0.01298500  0.00000000       0.010
  -0.01124534 -0.04544749  0.00000000       0.010
  -0.04498135  0.01298500  0.00000000       0.010
  -0.01124534  0.04544749  0.00000000       0.010
   0.03373601  0.03246249  0.00000000       0.010
  -0.01124534  0.01947749  0.00000000       0.010
  -0.02249067  0.00000000  0.00000000       0.010
  -0.01124534 -0.01947749  0.00000000       0.010
   0.03373601  0.01947749  0.00000000       0.010
   0.00000000  0.03895499  0.00000000       0.010
  -0.03373601  0.01947749  0.00000000       0.010
   0.05622668  0.00649250  0.00000000       0.010
   0.02249067  0.05193999  0.00000000       0.010
  -0.03373601  0.04544749  0.00000000       0.010
   0.02249067 -0.05193999  0.00000000       0.010
  -0.03373601 -0.04544749  0.00000000       0.010
  -0.05622668  0.00649250  0.00000000       0.010
   0.07871736 -0.00649250  0.00000000       0.010
   0.04498135  0.06492498  0.00000000       0.010
  -0.03373601  0.07141748  0.00000000       0.010
   0.04498135 -0.06492498  0.00000000       0.010
  -0.03373601 -0.07141748  0.00000000       0.010
  -0.07871736 -0.00649250  0.00000000       0.010
  -0.07871736  0.08440248  0.00000000       0.010
   0.06747202 -0.12984997  0.00000000       0.010
  -0.03373601  0.09738747  0.00000000       0.010
   0.06747202 -0.07790998  0.00000000       0.010
  -0.03373601  0.11037247  0.00000000       0.010
   0.07871736 -0.12335747  0.00000000       0.010
  -0.05622668  0.07141748  0.00000000       0.010
   0.08996269 -0.11686497  0.00000000       0.010
  -0.03373601  0.12335747  0.00000000       0.010
   0.08996269 -0.09089498  0.00000000       0.010
  -0.03373601  0.08440248  0.00000000       0.010
   0.05622668  0.07141748  0.00000000       0.010
  -0.03373601  0.05843248  0.00000000       0.010
  -0.06747202  0.00000000  0.00000000       0.010
  -0.03373601 -0.05843248  0.00000000       0.010
   0.05622668  0.03246249  0.00000000       0.010
   0.00000000  0.06492498  0.00000000       0.010
  -0.05622668  0.03246249  0.00000000       0.010
   0.07871736  0.01947749  0.00000000       0.010
   0.02249067  0.07790998  0.00000000       0.010
  -0.05622668  0.05843248  0.00000000       0.010
   0.02249067 -0.07790998  0.00000000       0.010
  -0.05622668 -0.05843248  0.00000000       0.010
  -0.07871736  0.01947749  0.00000000       0.010
  -0.07871736  0.11037247  0.00000000       0.010
   0.04498135 -0.11686497  0.00000000       0.010
  -0.05622668  0.08440248  0.00000000       0.010
   0.04498135 -0.09089498  0.00000000       0.010
  -0.05622668  0.12335747  0.00000000       0.010
   0.07871736 -0.09738747  0.00000000       0.010
  -0.05622668  0.09738747  0.00000000       0.010
   0.06747202 -0.10387997  0.00000000       0.010
  -0.05622668  0.11037247  0.00000000       0.010
   0.07871736  0.04544749  0.00000000       0.010
   0.00000000  0.09089498  0.00000000       0.010
  -0.07871736  0.04544749  0.00000000       0.010
  -0.07871736  0.13634246  0.00000000       0.010
   0.02249067 -0.10387997  0.00000000       0.010
  -0.07871736  0.07141748  0.00000000       0.010
 
 k-points in reciprocal lattice and weights: 0.2.Ir1.Au15                            
   0.06250000  0.06250000  0.00000000       0.010
   0.00000000  0.06250000  0.00000000       0.010
  -0.06250000  0.00000000  0.00000000       0.010
   0.18750000  0.06250000  0.00000000       0.010
   0.12500000  0.18750000  0.00000000       0.010
  -0.06250000  0.12500000  0.00000000       0.010
   0.12500000 -0.06250000  0.00000000       0.010
  -0.06250000 -0.18750000  0.00000000       0.010
  -0.18750000 -0.12500000  0.00000000       0.010
   0.31250000  0.06250000  0.00000000       0.010
   0.25000000  0.31250000  0.00000000       0.010
  -0.06250000  0.25000000  0.00000000       0.010
   0.25000000 -0.06250000  0.00000000       0.010
  -0.06250000 -0.31250000  0.00000000       0.010
  -0.31250000 -0.25000000  0.00000000       0.010
   0.43750000  0.06250000  0.00000000       0.010
   0.37500000  0.43750000  0.00000000       0.010
  -0.06250000  0.37500000  0.00000000       0.010
   0.37500000 -0.06250000  0.00000000       0.010
  -0.06250000 -0.43750000  0.00000000       0.010
  -0.43750000 -0.37500000  0.00000000       0.010
  -0.43750000  0.06250000  0.00000000       0.010
   0.50000000 -0.43750000  0.00000000       0.010
  -0.06250000  0.50000000  0.00000000       0.010
   0.50000000 -0.06250000  0.00000000       0.010
  -0.06250000  0.43750000  0.00000000       0.010
   0.43750000  0.50000000  0.00000000       0.010
  -0.31250000  0.06250000  0.00000000       0.010
  -0.37500000 -0.31250000  0.00000000       0.010
  -0.06250000 -0.37500000  0.00000000       0.010
  -0.37500000 -0.06250000  0.00000000       0.010
  -0.06250000  0.31250000  0.00000000       0.010
   0.31250000  0.37500000  0.00000000       0.010
  -0.18750000  0.06250000  0.00000000       0.010
  -0.25000000 -0.18750000  0.00000000       0.010
  -0.06250000 -0.25000000  0.00000000       0.010
  -0.25000000 -0.06250000  0.00000000       0.010
  -0.06250000  0.18750000  0.00000000       0.010
   0.18750000  0.25000000  0.00000000       0.010
  -0.06250000  0.06250000  0.00000000       0.010
  -0.12500000 -0.06250000  0.00000000       0.010
  -0.06250000 -0.12500000  0.00000000       0.010
   0.18750000  0.18750000  0.00000000       0.010
   0.00000000  0.18750000  0.00000000       0.010
  -0.18750000  0.00000000  0.00000000       0.010
   0.31250000  0.18750000  0.00000000       0.010
   0.12500000  0.31250000  0.00000000       0.010
  -0.18750000  0.12500000  0.00000000       0.010
   0.12500000 -0.18750000  0.00000000       0.010
  -0.18750000 -0.31250000  0.00000000       0.010
  -0.31250000 -0.12500000  0.00000000       0.010
   0.43750000  0.18750000  0.00000000       0.010
   0.25000000  0.43750000  0.00000000       0.010
  -0.18750000  0.25000000  0.00000000       0.010
   0.25000000 -0.18750000  0.00000000       0.010
  -0.18750000 -0.43750000  0.00000000       0.010
  -0.43750000 -0.25000000  0.00000000       0.010
  -0.43750000  0.18750000  0.00000000       0.010
   0.37500000 -0.43750000  0.00000000       0.010
  -0.18750000  0.37500000  0.00000000       0.010
   0.37500000 -0.18750000  0.00000000       0.010
  -0.18750000  0.43750000  0.00000000       0.010
   0.43750000 -0.37500000  0.00000000       0.010
  -0.31250000  0.18750000  0.00000000       0.010
   0.50000000 -0.31250000  0.00000000       0.010
  -0.18750000  0.50000000  0.00000000       0.010
   0.50000000 -0.18750000  0.00000000       0.010
  -0.18750000  0.31250000  0.00000000       0.010
   0.31250000  0.50000000  0.00000000       0.010
  -0.18750000  0.18750000  0.00000000       0.010
  -0.37500000 -0.18750000  0.00000000       0.010
  -0.18750000 -0.37500000  0.00000000       0.010
   0.31250000  0.31250000  0.00000000       0.010
   0.00000000  0.31250000  0.00000000       0.010
  -0.31250000  0.00000000  0.00000000       0.010
   0.43750000  0.31250000  0.00000000       0.010
   0.12500000  0.43750000  0.00000000       0.010
  -0.31250000  0.12500000  0.00000000       0.010
   0.12500000 -0.31250000  0.00000000       0.010
  -0.31250000 -0.43750000  0.00000000       0.010
  -0.43750000 -0.12500000  0.00000000       0.010
  -0.43750000  0.31250000  0.00000000       0.010
   0.25000000 -0.43750000  0.00000000       0.010
  -0.31250000  0.25000000  0.00000000       0.010
   0.25000000 -0.31250000  0.00000000       0.010
  -0.31250000  0.43750000  0.00000000       0.010
   0.43750000 -0.25000000  0.00000000       0.010
  -0.31250000  0.31250000  0.00000000       0.010
   0.37500000 -0.31250000  0.00000000       0.010
  -0.31250000  0.37500000  0.00000000       0.010
   0.43750000  0.43750000  0.00000000       0.010
   0.00000000  0.43750000  0.00000000       0.010
  -0.43750000 -0.00000000  0.00000000       0.010
  -0.43750000  0.43750000  0.00000000       0.010
   0.12500000 -0.43750000  0.00000000       0.010
  -0.43750000  0.12500000  0.00000000       0.010
 
 position of ions in fractional coordinates (direct lattice) 
   0.51640398  0.48244706  0.61712786
   0.00296799  0.97947042  0.69338062
   0.03514317  0.46475115  0.67099061
   0.92212050  0.19241338  0.70533281
   0.86633692  0.89989697  0.70362272
   0.21626189  0.84282610  0.70502110
   0.49706083  0.00130281  0.39241422
   0.01574768  0.48215844  0.62067827
   0.51607453  0.98223684  0.61715428
   0.01364066  0.98280816  0.62611812
   0.33741989  0.82467208  0.54406167
   0.00043314  0.99979929  0.39262800
   0.84280458  0.32111319  0.54367514
   0.66861464  0.66281936  0.46779759
   0.16837544  0.66292567  0.46910320
   0.66887119  0.16268935  0.46751485
   0.16844786  0.16259879  0.46904471
   0.49696520  0.50155264  0.39240769
   0.00023886  0.49992227  0.39259260
   0.34076750  0.32300713  0.54298302
   0.84282966  0.82278330  0.54380117
 
 position of ions in cartesian coordinates  (Angst):
   4.21078712  2.32213705 19.01183311
   2.73837504  4.71443339 21.36094891
   1.48683156  2.23696225 20.67118067
   5.65971921  0.92613317 21.72915952
   7.31572907  4.33142670 21.67647672
   3.54410756  4.05673047 21.71955669
   2.76621457  0.00627073 12.08908900
   1.42740778  2.32074782 19.12121039
   5.59783671  4.72774884 19.01264708
   2.80696762  4.73049877 19.28879576
   4.16703795  3.96935071 16.76088601
   2.78077921  4.81228127 12.09567510
   5.57654026  1.54559721 16.74897807
   5.55799450  3.19031354 14.41142154
   2.77803078  3.19082522 14.45164327
   4.16959419  0.78306407 14.40271117
   1.38806011  0.78262818 14.44984161
   4.15584216  2.41409691 12.08888780
   1.39057637  2.40624954 12.09458434
   2.79155190  1.55471320 16.72765605
   6.97078559  3.96025954 16.75286080
 


--------------------------------------------------------------------------------------------------------


 k-point  1 :   0.0625 0.0625 0.0000  plane waves:   12325
 k-point  2 :   0.0000 0.0625 0.0000  plane waves:   12325
 k-point  3 :  -0.0625 0.0000 0.0000  plane waves:   12325
 k-point  4 :   0.1875 0.0625 0.0000  plane waves:   12294
 k-point  5 :   0.1250 0.1875 0.0000  plane waves:   12294
 k-point  6 :  -0.0625 0.1250 0.0000  plane waves:   12294
 k-point  7 :   0.1250-0.0625 0.0000  plane waves:   12294
 k-point  8 :  -0.0625-0.1875 0.0000  plane waves:   12294
 k-point  9 :  -0.1875-0.1250 0.0000  plane waves:   12294
 k-point 10 :   0.3125 0.0625 0.0000  plane waves:   12263
 k-point 11 :   0.2500 0.3125 0.0000  plane waves:   12263
 k-point 12 :  -0.0625 0.2500 0.0000  plane waves:   12263
 k-point 13 :   0.2500-0.0625 0.0000  plane waves:   12263
 k-point 14 :  -0.0625-0.3125 0.0000  plane waves:   12263
 k-point 15 :  -0.3125-0.2500 0.0000  plane waves:   12263
 k-point 16 :   0.4375 0.0625 0.0000  plane waves:   12221
 k-point 17 :   0.3750 0.4375 0.0000  plane waves:   12221
 k-point 18 :  -0.0625 0.3750 0.0000  plane waves:   12221
 k-point 19 :   0.3750-0.0625 0.0000  plane waves:   12221
 k-point 20 :  -0.0625-0.4375 0.0000  plane waves:   12221
 k-point 21 :  -0.4375-0.3750 0.0000  plane waves:   12221
 k-point 22 :  -0.4375 0.0625 0.0000  plane waves:   12211
 k-point 23 :   0.5000-0.4375 0.0000  plane waves:   12211
 k-point 24 :  -0.0625 0.5000 0.0000  plane waves:   12211
 k-point 25 :   0.5000-0.0625 0.0000  plane waves:   12211
 k-point 26 :  -0.0625 0.4375 0.0000  plane waves:   12211
 k-point 27 :   0.4375 0.5000 0.0000  plane waves:   12211
 k-point 28 :  -0.3125 0.0625 0.0000  plane waves:   12242
 k-point 29 :  -0.3750-0.3125 0.0000  plane waves:   12242
 k-point 30 :  -0.0625-0.3750 0.0000  plane waves:   12242
 k-point 31 :  -0.3750-0.0625 0.0000  plane waves:   12242
 k-point 32 :  -0.0625 0.3125 0.0000  plane waves:   12242
 k-point 33 :   0.3125 0.3750 0.0000  plane waves:   12242
 k-point 34 :  -0.1875 0.0625 0.0000  plane waves:   12280
 k-point 35 :  -0.2500-0.1875 0.0000  plane waves:   12280
 k-point 36 :  -0.0625-0.2500 0.0000  plane waves:   12280
 k-point 37 :  -0.2500-0.0625 0.0000  plane waves:   12280
 k-point 38 :  -0.0625 0.1875 0.0000  plane waves:   12280
 k-point 39 :   0.1875 0.2500 0.0000  plane waves:   12280
 k-point 40 :  -0.0625 0.0625 0.0000  plane waves:   12329
 k-point 41 :  -0.1250-0.0625 0.0000  plane waves:   12329
 k-point 42 :  -0.0625-0.1250 0.0000  plane waves:   12329
 k-point 43 :   0.1875 0.1875 0.0000  plane waves:   12277
 k-point 44 :   0.0000 0.1875 0.0000  plane waves:   12277
 k-point 45 :  -0.1875 0.0000 0.0000  plane waves:   12277
 k-point 46 :   0.3125 0.1875 0.0000  plane waves:   12288
 k-point 47 :   0.1250 0.3125 0.0000  plane waves:   12288
 k-point 48 :  -0.1875 0.1250 0.0000  plane waves:   12288
 k-point 49 :   0.1250-0.1875 0.0000  plane waves:   12288
 k-point 50 :  -0.1875-0.3125 0.0000  plane waves:   12288
 k-point 51 :  -0.3125-0.1250 0.0000  plane waves:   12288
 k-point 52 :   0.4375 0.1875 0.0000  plane waves:   12234
 k-point 53 :   0.2500 0.4375 0.0000  plane waves:   12234
 k-point 54 :  -0.1875 0.2500 0.0000  plane waves:   12234
 k-point 55 :   0.2500-0.1875 0.0000  plane waves:   12234
 k-point 56 :  -0.1875-0.4375 0.0000  plane waves:   12234
 k-point 57 :  -0.4375-0.2500 0.0000  plane waves:   12234
 k-point 58 :  -0.4375 0.1875 0.0000  plane waves:   12216
 k-point 59 :   0.3750-0.4375 0.0000  plane waves:   12216
 k-point 60 :  -0.1875 0.3750 0.0000  plane waves:   12216
 k-point 61 :   0.3750-0.1875 0.0000  plane waves:   12216
 k-point 62 :  -0.1875 0.4375 0.0000  plane waves:   12216
 k-point 63 :   0.4375-0.3750 0.0000  plane waves:   12216
 k-point 64 :  -0.3125 0.1875 0.0000  plane waves:   12215
 k-point 65 :   0.5000-0.3125 0.0000  plane waves:   12215
 k-point 66 :  -0.1875 0.5000 0.0000  plane waves:   12215
 k-point 67 :   0.5000-0.1875 0.0000  plane waves:   12215
 k-point 68 :  -0.1875 0.3125 0.0000  plane waves:   12215
 k-point 69 :   0.3125 0.5000 0.0000  plane waves:   12215
 k-point 70 :  -0.1875 0.1875 0.0000  plane waves:   12289
 k-point 71 :  -0.3750-0.1875 0.0000  plane waves:   12289
 k-point 72 :  -0.1875-0.3750 0.0000  plane waves:   12289
 k-point 73 :   0.3125 0.3125 0.0000  plane waves:   12275
 k-point 74 :   0.0000 0.3125 0.0000  plane waves:   12275
 k-point 75 :  -0.3125 0.0000 0.0000  plane waves:   12275
 k-point 76 :   0.4375 0.3125 0.0000  plane waves:   12239
 k-point 77 :   0.1250 0.4375 0.0000  plane waves:   12239
 k-point 78 :  -0.3125 0.1250 0.0000  plane waves:   12239
 k-point 79 :   0.1250-0.3125 0.0000  plane waves:   12239
 k-point 80 :  -0.3125-0.4375 0.0000  plane waves:   12239
 k-point 81 :  -0.4375-0.1250 0.0000  plane waves:   12239
 k-point 82 :  -0.4375 0.3125 0.0000  plane waves:   12235
 k-point 83 :   0.2500-0.4375 0.0000  plane waves:   12235
 k-point 84 :  -0.3125 0.2500 0.0000  plane waves:   12235
 k-point 85 :   0.2500-0.3125 0.0000  plane waves:   12235
 k-point 86 :  -0.3125 0.4375 0.0000  plane waves:   12235
 k-point 87 :   0.4375-0.2500 0.0000  plane waves:   12235
 k-point 88 :  -0.3125 0.3125 0.0000  plane waves:   12232
 k-point 89 :   0.3750-0.3125 0.0000  plane waves:   12232
 k-point 90 :  -0.3125 0.3750 0.0000  plane waves:   12232
 k-point 91 :   0.4375 0.4375 0.0000  plane waves:   12200
 k-point 92 :   0.0000 0.4375 0.0000  plane waves:   12200
 k-point 93 :  -0.4375-0.0000 0.0000  plane waves:   12200
 k-point 94 :  -0.4375 0.4375 0.0000  plane waves:   12214
 k-point 95 :   0.1250-0.4375 0.0000  plane waves:   12214
 k-point 96 :  -0.4375 0.1250 0.0000  plane waves:   12214

 maximum and minimum number of plane-waves per node :      3101     2992

 maximum number of plane-waves:     12329
 maximum index in each direction: 
   IXMAX=    8   IYMAX=    8   IZMAX=   46
   IXMIN=   -8   IYMIN=   -8   IZMIN=  -46


 real space projection operators:
  total allocation   :       5092.53 KBytes
  max/ min on nodes  :       1275.11       1270.93


 parallel 3D FFT for wavefunctions:
    minimum data exchange during FFTs selected (reduces bandwidth)
 parallel 3D FFT for charge:
    minimum data exchange during FFTs selected (reduces bandwidth)


 total amount of memory used by VASP MPI-rank0   164312. kBytes
=======================================================================

   base      :      30000. kBytes
   nonlr-proj:       2359. kBytes
   fftplans  :       2967. kBytes
   grid      :       6321. kBytes
   one-center:         93. kBytes
   wavefun   :     122572. kBytes
 
     INWAV:  cpu time    0.0000: real time    0.0000
 Broyden mixing: mesh for mixing (old mesh)
   NGX = 17   NGY = 17   NGZ = 93
  (NGX  = 56   NGY  = 56   NGZ  =288)
  gives a total of  26877 points

 initial charge density was supplied:
 charge density of overlapping atoms calculated
 number of electron     168.0000000 magnetization 
 keeping initial charge density in first step


--------------------------------------------------------------------------------------------------------


 Maximum index for non-local projection operator          539
 Maximum index for augmentation-charges          720 (set IRDMAX)


--------------------------------------------------------------------------------------------------------


 First call to EWALD:  gamma=   0.189
 Maximum number of real-space cells 5x 5x 1
 Maximum number of reciprocal cells 2x 2x 8

    FEWALD:  cpu time    0.0013: real time    0.0013


--------------------------------------- Iteration      1(   1)  ---------------------------------------


    POTLOK:  cpu time    0.0264: real time    0.0341
    SETDIJ:  cpu time    0.0030: real time    0.0039
     EDDAV:  cpu time   13.9155: real time   13.9305
       DOS:  cpu time    0.0077: real time    0.0077
    --------------------------------------------
      LOOP:  cpu time   13.9527: real time   13.9762

 eigenvalue-minimisations  : 19288
 total energy-change (2. order) : 0.1028733E+04  (-0.5832113E+04)
 number of electron     168.0000000 magnetization 
 augmentation part      168.0000000 magnetization 

 Free energy of the ion-electron system (eV)
  ---------------------------------------------------
  alpha Z        PSCENC =       324.87461712
  Ewald energy   TEWEN  =    100884.76439473
  -Hartree energ DENC   =   -113173.16651419
  -exchange      EXHF   =         0.00000000
  -V(xc)+E(xc)   XCENC  =        69.10416971
  PAW double counting   =     11288.27476651   -10829.50941267
  entropy T*S    EENTRO =         0.00002312
  eigenvalues    EBANDS =       573.75359869
  atomic energy  EATOM  =     11890.63736546
  Solvation  Ediel_sol  =         0.00000000
  ---------------------------------------------------
  free energy    TOTEN  =      1028.73300849 eV

  energy without entropy =     1028.73298536  energy(sigma->0) =     1028.73300078


--------------------------------------------------------------------------------------------------------




--------------------------------------- Iteration      1(   2)  ---------------------------------------


     EDDAV:  cpu time   16.1864: real time   16.1880
       DOS:  cpu time    0.0085: real time    0.0085
    --------------------------------------------
      LOOP:  cpu time   16.1948: real time   16.1965

 eigenvalue-minimisations  : 24104
 total energy-change (2. order) :-0.1059543E+04  (-0.9855243E+03)
 number of electron     168.0000000 magnetization 
 augmentation part      168.0000000 magnetization 

 Free energy of the ion-electron system (eV)
  ---------------------------------------------------
  alpha Z        PSCENC =       324.87461712
  Ewald energy   TEWEN  =    100884.76439473
  -Hartree energ DENC   =   -113173.16651419
  -exchange      EXHF   =         0.00000000
  -V(xc)+E(xc)   XCENC  =        69.10416971
  PAW double counting   =     11288.27476651   -10829.50941267
  entropy T*S    EENTRO =         0.00138487
  eigenvalues    EBANDS =      -485.79092823
  atomic energy  EATOM  =     11890.63736546
  Solvation  Ediel_sol  =         0.00000000
  ---------------------------------------------------
  free energy    TOTEN  =       -30.81015669 eV

  energy without entropy =      -30.81154156  energy(sigma->0) =      -30.81061831


--------------------------------------------------------------------------------------------------------




--------------------------------------- Iteration      1(   3)  ---------------------------------------


     EDDAV:  cpu time   15.5890: real time   15.5910
       DOS:  cpu time    0.0089: real time    0.0089
    --------------------------------------------
      LOOP:  cpu time   15.5979: real time   15.5999

 eigenvalue-minimisations  : 23032
 total energy-change (2. order) :-0.9090520E+02  (-0.8420767E+02)
 number of electron     168.0000000 magnetization 
 augmentation part      168.0000000 magnetization 

 Free energy of the ion-electron system (eV)
  ---------------------------------------------------
  alpha Z        PSCENC =       324.87461712
  Ewald energy   TEWEN  =    100884.76439473
  -Hartree energ DENC   =   -113173.16651419
  -exchange      EXHF   =         0.00000000
  -V(xc)+E(xc)   XCENC  =        69.10416971
  PAW double counting   =     11288.27476651   -10829.50941267
  entropy T*S    EENTRO =        -0.01747592
  eigenvalues    EBANDS =      -576.67727107
  atomic energy  EATOM  =     11890.63736546
  Solvation  Ediel_sol  =         0.00000000
  ---------------------------------------------------
  free energy    TOTEN  =      -121.71536031 eV

  energy without entropy =     -121.69788440  energy(sigma->0) =     -121.70953501


--------------------------------------------------------------------------------------------------------




--------------------------------------- Iteration      1(   4)  ---------------------------------------


     EDDAV:  cpu time   16.9478: real time   16.9485
       DOS:  cpu time    0.0086: real time    0.0086
    --------------------------------------------
      LOOP:  cpu time   16.9563: real time   16.9570

 eigenvalue-minimisations  : 25520
 total energy-change (2. order) :-0.4352150E+01  (-0.4152257E+01)
 number of electron     168.0000000 magnetization 
 augmentation part      168.0000000 magnetization 

 Free energy of the ion-electron system (eV)
  ---------------------------------------------------
  alpha Z        PSCENC =       324.87461712
  Ewald energy   TEWEN  =    100884.76439473
  -Hartree energ DENC   =   -113173.16651419
  -exchange      EXHF   =         0.00000000
  -V(xc)+E(xc)   XCENC  =        69.10416971
  PAW double counting   =     11288.27476651   -10829.50941267
  entropy T*S    EENTRO =        -0.02791065
  eigenvalues    EBANDS =      -581.01898682
  atomic energy  EATOM  =     11890.63736546
  Solvation  Ediel_sol  =         0.00000000
  ---------------------------------------------------
  free energy    TOTEN  =      -126.06751079 eV

  energy without entropy =     -126.03960014  energy(sigma->0) =     -126.05820724


--------------------------------------------------------------------------------------------------------




--------------------------------------- Iteration      1(   5)  ---------------------------------------


     EDDAV:  cpu time   17.5975: real time   17.6026
       DOS:  cpu time    0.0090: real time    0.0090
    CHARGE:  cpu time    0.7116: real time    0.7116
    MIXING:  cpu time    0.0010: real time    0.0010
    --------------------------------------------
      LOOP:  cpu time   18.3190: real time   18.3241

 eigenvalue-minimisations  : 26560
 total energy-change (2. order) :-0.1382536E+00  (-0.1369973E+00)
 number of electron     168.0000033 magnetization 
 augmentation part       46.7822223 magnetization 

 Broyden mixing:
  rms(total) = 0.43050E+01    rms(broyden)= 0.43047E+01
  rms(prec ) = 0.43537E+01
  weight for this iteration     100.00

 Free energy of the ion-electron system (eV)
  ---------------------------------------------------
  alpha Z        PSCENC =       324.87461712
  Ewald energy   TEWEN  =    100884.76439473
  -Hartree energ DENC   =   -113173.16651419
  -exchange      EXHF   =         0.00000000
  -V(xc)+E(xc)   XCENC  =        69.10416971
  PAW double counting   =     11288.27476651   -10829.50941267
  entropy T*S    EENTRO =        -0.02826176
  eigenvalues    EBANDS =      -581.15688926
  atomic energy  EATOM  =     11890.63736546
  Solvation  Ediel_sol  =         0.00000000
  ---------------------------------------------------
  free energy    TOTEN  =      -126.20576434 eV

  energy without entropy =     -126.17750259  energy(sigma->0) =     -126.19634376


--------------------------------------------------------------------------------------------------------




--------------------------------------- Iteration      1(   6)  ---------------------------------------


    POTLOK:  cpu time    0.0235: real time    0.0239
    SETDIJ:  cpu time    0.0034: real time    0.0034
     EDDAV:  cpu time   15.5423: real time   15.5427
       DOS:  cpu time    0.0099: real time    0.0099
    CHARGE:  cpu time    0.7326: real time    0.7326
    MIXING:  cpu time    0.0011: real time    0.0011
    --------------------------------------------
      LOOP:  cpu time   16.3127: real time   16.3136

 eigenvalue-minimisations  : 23056
 total energy-change (2. order) : 0.7715656E+01  (-0.3581090E+01)
 number of electron     168.0000022 magnetization 
 augmentation part       49.8970360 magnetization 

 Broyden mixing:
  rms(total) = 0.31770E+01    rms(broyden)= 0.31768E+01
  rms(prec ) = 0.32895E+01
  weight for this iteration     100.00

 eigenvalues of (default mixing * dielectric matrix)
  average eigenvalue GAMMA=   1.1691
  1.1691

 Free energy of the ion-electron system (eV)
  ---------------------------------------------------
  alpha Z        PSCENC =       324.87461712
  Ewald energy   TEWEN  =    100884.76439473
  -Hartree energ DENC   =   -112941.67805538
  -exchange      EXHF   =         0.00000000
  -V(xc)+E(xc)   XCENC  =        65.87150456
  PAW double counting   =     12531.46046348   -12097.05807939
  entropy T*S    EENTRO =        -0.00254755
  eigenvalues    EBANDS =      -777.35977186
  atomic energy  EATOM  =     11890.63736546
  Solvation  Ediel_sol  =         0.00000000
  ---------------------------------------------------
  free energy    TOTEN  =      -118.49010883 eV

  energy without entropy =     -118.48756128  energy(sigma->0) =     -118.48925965


--------------------------------------------------------------------------------------------------------




--------------------------------------- Iteration      1(   7)  ---------------------------------------


    POTLOK:  cpu time    0.0217: real time    0.0227
    SETDIJ:  cpu time    0.0034: real time    0.0034
     EDDAV:  cpu time   18.2274: real time   18.2282
       DOS:  cpu time    0.0095: real time    0.0095
    CHARGE:  cpu time    0.7117: real time    0.7117
    MIXING:  cpu time    0.0012: real time    0.0012
    --------------------------------------------
      LOOP:  cpu time   18.9749: real time   18.9767

 eigenvalue-minimisations  : 28108
 total energy-change (2. order) :-0.2711093E+02  (-0.1196512E+02)
 number of electron     168.0000043 magnetization 
 augmentation part       48.9382496 magnetization 

 Broyden mixing:
  rms(total) = 0.48144E+01    rms(broyden)= 0.48143E+01
  rms(prec ) = 0.54347E+01
  weight for this iteration     100.00

 eigenvalues of (default mixing * dielectric matrix)
  average eigenvalue GAMMA=   1.0158
  1.7906  0.2410

 Free energy of the ion-electron system (eV)
  ---------------------------------------------------
  alpha Z        PSCENC =       324.87461712
  Ewald energy   TEWEN  =    100884.76439473
  -Hartree energ DENC   =   -113152.54149680
  -exchange      EXHF   =         0.00000000
  -V(xc)+E(xc)   XCENC  =        65.49466901
  PAW double counting   =     13512.39621343   -13086.71215012
  entropy T*S    EENTRO =        -0.00165398
  eigenvalues    EBANDS =      -584.51300244
  atomic energy  EATOM  =     11890.63736546
  Solvation  Ediel_sol  =         0.00000000
  ---------------------------------------------------
  free energy    TOTEN  =      -145.60104359 eV

  energy without entropy =     -145.59938961  energy(sigma->0) =     -145.60049226


--------------------------------------------------------------------------------------------------------




--------------------------------------- Iteration      1(   8)  ---------------------------------------


    POTLOK:  cpu time    0.0231: real time    0.0232
    SETDIJ:  cpu time    0.0033: real time    0.0033
     EDDAV:  cpu time   19.3989: real time   19.3996
       DOS:  cpu time    0.0096: real time    0.0096
    CHARGE:  cpu time    0.7118: real time    0.7118
    MIXING:  cpu time    0.0010: real time    0.0010
    --------------------------------------------
      LOOP:  cpu time   20.1478: real time   20.1485

 eigenvalue-minimisations  : 30248
 total energy-change (2. order) : 0.2028317E+02  (-0.4567148E+01)
 number of electron     168.0000027 magnetization 
 augmentation part       49.9315581 magnetization 

 Broyden mixing:
  rms(total) = 0.26974E+01    rms(broyden)= 0.26973E+01
  rms(prec ) = 0.31987E+01
  weight for this iteration     100.00

 eigenvalues of (default mixing * dielectric matrix)
  average eigenvalue GAMMA=   0.8771
  2.0156  0.3078  0.3078

 Free energy of the ion-electron system (eV)
  ---------------------------------------------------
  alpha Z        PSCENC =       324.87461712
  Ewald energy   TEWEN  =    100884.76439473
  -Hartree energ DENC   =   -113019.55524848
  -exchange      EXHF   =         0.00000000
  -V(xc)+E(xc)   XCENC  =        64.95646411
  PAW double counting   =     14335.22243924   -13918.44562115
  entropy T*S    EENTRO =        -0.00168924
  eigenvalues    EBANDS =      -687.77059835
  atomic energy  EATOM  =     11890.63736546
  Solvation  Ediel_sol  =         0.00000000
[...]
     21      -5.1935      2.00000
     22      -5.0782      2.00000
     23      -4.9938      2.00000
     24      -4.9272      2.00000
     25      -4.8546      2.00000
     26      -4.8120      2.00000
     27      -4.7777      2.00000
     28      -4.6940      2.00000
     29      -4.6521      2.00000
     30      -4.5821      2.00000
     31      -4.5547      2.00000
     32      -4.4287      2.00000
     33      -4.3099      2.00000
     34      -4.2376      2.00000
     35      -4.1936      2.00000
     36      -4.0743      2.00000
     37      -4.0553      2.00000
     38      -3.9822      2.00000
     39      -3.9100      2.00000
     40      -3.8742      2.00000
     41      -3.7960      2.00000
     42      -3.7126      2.00000
     43      -3.6565      2.00000
     44      -3.6226      2.00000
     45      -3.5457      2.00000
     46      -3.5260      2.00000
     47      -3.3716      2.00000
     48      -3.3498      2.00000
     49      -3.2494      2.00000
     50      -3.2282      2.00000
     51      -3.1546      2.00000
     52      -3.1311      2.00000
     53      -3.0754      2.00000
     54      -2.9981      2.00000
     55      -2.9347      2.00000
     56      -2.8599      2.00000
     57      -2.6868      2.00000
     58      -2.6646      2.00000
     59      -2.4789      2.00000
     60      -2.4432      2.00000
     61      -2.3586      2.00000
     62      -2.3100      2.00000
     63      -2.2649      2.00000
     64      -2.1545      2.00000
     65      -2.1149      2.00000
     66      -2.1009      2.00000
     67      -2.0268      2.00000
     68      -1.8994      2.00000
     69      -1.8598      2.00000
     70      -1.7969      2.00000
     71      -1.6882      2.00000
     72      -1.6224      2.00000
     73      -1.5723      2.00000
     74      -1.5068      2.00000
     75      -1.4096      2.00000
     76      -1.3124      2.00000
     77      -1.2305      2.00000
     78      -1.1542      2.00000
     79      -1.0485      2.00001
     80      -0.9386      2.00020
     81      -0.9058      2.00048
     82      -0.6020      2.06906
     83      -0.5431      2.05277
     84      -0.4613      1.84326
     85      -0.3847      1.36318
     86      -0.3319      0.92652
     87      -0.2496      0.31123
     88      -0.1892      0.04340
     89      -0.1202     -0.06548
     90       0.6262     -0.00000
     91       0.8408     -0.00000
     92       1.1010     -0.00000
     93       1.2191     -0.00000
     94       1.9081     -0.00000
     95       2.7251     -0.00000
     96       2.8869     -0.00000
     97       3.0886     -0.00000
     98       3.6895     -0.00000
     99       4.0050     -0.00000
    100       4.4793     -0.00000

 k-point    96 :      -0.4375    0.1250    0.0000
  band No.  band energies     occupation 
      1     -12.4235      2.00000
      2      -7.8101      2.00000
      3      -7.7553      2.00000
      4      -6.9072      2.00000
      5      -6.8580      2.00000
      6      -6.3288      2.00000
      7      -6.1913      2.00000
      8      -6.1165      2.00000
      9      -5.9745      2.00000
     10      -5.8892      2.00000
     11      -5.8477      2.00000
     12      -5.7725      2.00000
     13      -5.7239      2.00000
     14      -5.6587      2.00000
     15      -5.6439      2.00000
     16      -5.5967      2.00000
     17      -5.5132      2.00000
     18      -5.4409      2.00000
     19      -5.3022      2.00000
     20      -5.2816      2.00000
     21      -5.2392      2.00000
     22      -5.1260      2.00000
     23      -5.0288      2.00000
     24      -4.9384      2.00000
     25      -4.8577      2.00000
     26      -4.7976      2.00000
     27      -4.7725      2.00000
     28      -4.7586      2.00000
     29      -4.6570      2.00000
     30      -4.6131      2.00000
     31      -4.5551      2.00000
     32      -4.4333      2.00000
     33      -4.3589      2.00000
     34      -4.2794      2.00000
     35      -4.1835      2.00000
     36      -4.1356      2.00000
     37      -4.0731      2.00000
     38      -4.0064      2.00000
     39      -3.9421      2.00000
     40      -3.8855      2.00000
     41      -3.8216      2.00000
     42      -3.7392      2.00000
     43      -3.6823      2.00000
     44      -3.6603      2.00000
     45      -3.5787      2.00000
     46      -3.4927      2.00000
     47      -3.4356      2.00000
     48      -3.3079      2.00000
     49      -3.2246      2.00000
     50      -3.1800      2.00000
     51      -3.1581      2.00000
     52      -3.1257      2.00000
     53      -3.0537      2.00000
     54      -3.0107      2.00000
     55      -2.9213      2.00000
     56      -2.8682      2.00000
     57      -2.6999      2.00000
     58      -2.6334      2.00000
     59      -2.4881      2.00000
     60      -2.4515      2.00000
     61      -2.3839      2.00000
     62      -2.3290      2.00000
     63      -2.2545      2.00000
     64      -2.1380      2.00000
     65      -2.0911      2.00000
     66      -2.0269      2.00000
     67      -1.9616      2.00000
     68      -1.9104      2.00000
     69      -1.8383      2.00000
     70      -1.8098      2.00000
     71      -1.6622      2.00000
     72      -1.5951      2.00000
     73      -1.5719      2.00000
     74      -1.5274      2.00000
     75      -1.4713      2.00000
     76      -1.2753      2.00000
     77      -1.2266      2.00000
     78      -1.1026      2.00000
     79      -1.0603      2.00000
     80      -0.9232      2.00030
     81      -0.8118      2.00430
     82      -0.7038      2.02767
     83      -0.5196      2.02100
     84      -0.4382      1.72676
     85      -0.4085      1.53981
     86      -0.3431      1.02144
     87      -0.1950      0.06138
     88      -0.1034     -0.07043
     89      -0.0071     -0.03998
     90       0.6406     -0.00000
     91       0.8258     -0.00000
     92       1.1817     -0.00000
     93       1.2800     -0.00000
     94       1.8499     -0.00000
     95       2.3502     -0.00000
     96       2.8142     -0.00000
     97       3.4251     -0.00000
     98       3.6104     -0.00000
     99       4.0814     -0.00000
    100       4.3613     -0.00000


--------------------------------------------------------------------------------------------------------


 soft charge-density along one line, spin component           1
         0         1         2         3         4         5         6         7         8         9
 total charge-density along one line
 
 pseudopotential strength for first ion, spin component:           1
 -7.873   0.001   0.003  -0.007   0.001  -8.023   0.001   0.003
  0.001  -7.818  -0.001   0.000  -0.005   0.001  -7.970  -0.001
  0.003  -0.001  -7.812   0.002   0.000   0.003  -0.001  -7.964
 -0.007   0.000   0.002  -7.817   0.001  -0.007   0.000   0.002
  0.001  -0.005   0.000   0.001  -7.873   0.001  -0.005   0.000
 -8.023   0.001   0.003  -0.007   0.001  -8.157   0.001   0.003
  0.001  -7.970  -0.001   0.000  -0.005   0.001  -8.105  -0.001
  0.003  -0.001  -7.964   0.002   0.000   0.003  -0.001  -8.099
 -0.007   0.000   0.002  -7.968   0.001  -0.007   0.000   0.002
  0.001  -0.005   0.000   0.001  -8.023   0.001  -0.005   0.000
  0.001   0.000  -0.019  -0.000   0.000   0.001   0.000  -0.019
  0.001   0.000  -0.028  -0.001   0.000   0.001   0.000  -0.028
 -0.000   0.003   0.000  -0.000  -0.000  -0.000   0.003   0.000
 -0.000  -0.000   0.005  -0.000  -0.000  -0.000  -0.000   0.004
 -0.000  -0.000   0.000   0.003  -0.000  -0.000  -0.000   0.000
 -0.000   0.002   0.000  -0.000  -0.000  -0.000   0.002   0.000
 -0.000  -0.000   0.004  -0.000  -0.000  -0.000  -0.000   0.003
 -0.001  -0.000   0.000   0.002  -0.000  -0.001  -0.000   0.000
 total augmentation occupancy for first ion, spin component:           1
  5.128  -0.013   0.051  -0.033   0.091  -3.239   0.012  -0.019  -0.065  -0.064  -0.011  -0.007  -0.009   0.031   0.050  -0.000
 -0.013   4.868  -0.040   0.003  -0.013   0.012  -2.660   0.025   0.014  -0.082  -0.000   0.003   0.179  -0.003   0.026  -0.007
  0.051  -0.040   5.464   0.050  -0.005  -0.019   0.025  -3.317  -0.029   0.008   0.733  -0.057  -0.005   0.433   0.007   0.000
 -0.033   0.003   0.050   5.017  -0.024  -0.064   0.014  -0.029  -2.782   0.025   0.020  -0.011   0.026  -0.001   0.172  -0.001
  0.091  -0.013  -0.005  -0.024   5.198  -0.064  -0.084   0.008   0.025  -3.306  -0.024   0.002   0.048  -0.004  -0.001  -0.002
 -3.239   0.012  -0.019  -0.064  -0.064   3.231  -0.012  -0.006   0.140   0.042   0.011   0.006   0.010  -0.027  -0.049  -0.000
  0.012  -2.660   0.025   0.014  -0.084  -0.012   2.402  -0.013  -0.028   0.155  -0.001  -0.000  -0.169   0.001  -0.023   0.007
 -0.019   0.025  -3.317  -0.029   0.008  -0.006  -0.013   3.112   0.012  -0.010  -0.675   0.078   0.004  -0.428  -0.006  -0.000
 -0.065   0.014  -0.029  -2.782   0.025   0.140  -0.028   0.012   2.502  -0.025  -0.020   0.009  -0.023   0.005  -0.168   0.001
 -0.064  -0.082   0.008   0.025  -3.306   0.042   0.155  -0.010  -0.025   3.295   0.023  -0.004  -0.046   0.002   0.003   0.002
 -0.011  -0.000   0.733   0.020  -0.024   0.011  -0.001  -0.675  -0.020   0.023   2.637  -0.625  -0.002  -0.169   0.007   0.000
 -0.007   0.003  -0.057  -0.011   0.002   0.006  -0.000   0.078   0.009  -0.004  -0.625   0.185   0.000   0.071  -0.000  -0.000
 -0.009   0.179  -0.005   0.026   0.048   0.010  -0.169   0.004  -0.023  -0.046  -0.002   0.000   0.233  -0.000   0.002  -0.007
  0.031  -0.003   0.433  -0.001  -0.004  -0.027   0.001  -0.428   0.005   0.002  -0.169   0.071  -0.000   0.145  -0.000   0.000
  0.050   0.026   0.007   0.172  -0.001  -0.049  -0.023  -0.006  -0.168   0.003   0.007  -0.000   0.002  -0.000   0.235  -0.000
 -0.000  -0.007   0.000  -0.001  -0.002  -0.000   0.007  -0.000   0.001   0.002   0.000  -0.000  -0.007   0.000  -0.000   0.000
 -0.001  -0.000  -0.007  -0.000  -0.000   0.001   0.000   0.011  -0.000   0.000   0.009  -0.003   0.000  -0.005   0.000  -0.000
 -0.002  -0.001   0.000  -0.007  -0.000   0.002   0.001   0.000   0.008  -0.000  -0.000   0.000  -0.000   0.000  -0.007   0.000


------------------------ aborting loop because EDIFF is reached ----------------------------------------



 DIPCOR: dipole corrections for dipol
 direction  3 min pos    20,
 dipolmoment           0.000000      0.000000     -0.220761 electrons x Angstroem
 Tr[quadrupol]      -944.456344

 energy correction for charged system         0.000000 eV
 dipol+quadrupol energy correction            0.005350 eV
 added-field ion interaction          0.000000 eV  (added to PSCEN)

 
  *************** adding dipol energy to TOTEN NOW **************** 
    CHARGE:  cpu time    0.7116: real time    0.7116
    FORLOC:  cpu time    0.0069: real time    0.0069
    FORNL :  cpu time    3.0875: real time    3.0876
    STRESS:  cpu time    9.2753: real time    9.2755
    FORCOR:  cpu time    0.0279: real time    0.0280
    FORHAR:  cpu time    0.0117: real time    0.0117
    MIXING:  cpu time    0.0039: real time    0.0039
    OFIELD:  cpu time    0.0000: real time    0.0000

  FORCE on cell =-STRESS in cart. coord.  units (eV):
  Direction    XX          YY          ZZ          XY          YZ          ZX
  --------------------------------------------------------------------------------------
  Alpha Z   324.87462   324.87462   324.87462
  Ewald  109750.34741109760.76729************    15.45813     5.93128    -4.76346
  Hartree112249.61843112264.74889************    11.98480     1.40026    -1.46307
  E(xc)    -737.10418  -737.16721  -741.09483     0.01464     0.04311    -0.02347
  Local  ************************227152.16551   -28.04741    -5.87264     5.66377
  n-local    46.86191    45.86716    40.21958    -0.52973     0.47487    -0.42318
  augment   835.90270   837.20142   855.89436     0.36526    -0.67349     0.38957
  Kinetic  2385.06912  2388.20810  2438.89058     1.04457    -0.98489     0.54458
  Fock        0.00000     0.00000     0.00000     0.00000     0.00000     0.00000
  -------------------------------------------------------------------------------------
  Total     -11.95292   -11.56521    -1.83771     0.29026     0.31851    -0.07526
  in kB     -23.23753   -22.48379    -3.57267     0.56429     0.61922    -0.14631
  external pressure =      -16.43 kB  Pullay stress =        0.00 kB


 VOLUME and BASIS-vectors are now :
 -----------------------------------------------------------------------------
  energy-cutoff  :      350.00
  volume of cell :      824.13
      direct lattice vectors                 reciprocal lattice vectors
     5.557859300  0.000000000  0.000000000     0.179925390 -0.103879972  0.000000000
     2.778929650  4.813247345  0.000000000     0.000000000  0.207759944  0.000000000
     0.000000000  0.000000000 30.806959674     0.000000000  0.000000000  0.032460198

  length of vectors
     5.557859300  5.557859300 30.806959674     0.207759944  0.207759944  0.032460198


 FORCES acting on ions
    electron-ion (+dipol)            ewald-force                    non-local-force                 convergence-correction
 -----------------------------------------------------------------------------------------------
   0.310E+01 -.176E+01 -.279E+04   -.294E+01 0.172E+01 0.279E+04   -.240E+00 0.694E-01 0.868E+00   0.387E-03 -.625E-04 0.316E-02
   0.420E+00 -.175E+00 -.134E+04   -.484E+00 0.223E+00 0.134E+04   0.753E-01 -.200E-01 -.129E+01   0.444E-04 0.164E-04 -.938E-03
   -.237E+01 0.222E+01 -.365E+03   0.252E+01 -.238E+01 0.368E+03   -.136E+00 0.176E+00 -.306E+01   -.253E-04 0.213E-04 -.851E-04
   -.491E+01 -.437E+02 -.346E+03   0.562E+01 0.489E+02 0.348E+03   -.705E+00 -.515E+01 -.183E+01   0.457E-05 -.104E-03 -.245E-03
   0.432E+02 0.152E+02 -.345E+03   -.481E+02 -.171E+02 0.346E+03   0.492E+01 0.192E+01 -.156E+01   0.139E-03 0.185E-04 -.219E-03
   -.359E+02 0.287E+02 -.345E+03   0.399E+02 -.320E+02 0.347E+03   -.402E+01 0.328E+01 -.177E+01   -.118E-03 0.791E-04 -.225E-03
   -.248E+01 0.173E+01 0.265E+04   0.242E+01 -.168E+01 -.265E+04   0.447E-01 -.527E-01 -.126E+00   -.179E-05 -.715E-04 0.799E-02
   -.174E+00 0.431E+00 -.255E+04   0.268E+00 -.682E+00 0.255E+04   -.860E-01 0.324E+00 -.621E+01   -.304E-03 -.897E-04 0.297E-02
   0.461E+01 -.262E+01 -.254E+04   -.453E+01 0.238E+01 0.254E+04   -.553E-01 0.211E+00 0.140E+01   -.416E-04 -.120E-03 0.302E-02
   -.704E+01 -.132E+00 -.259E+04   0.672E+01 0.155E+00 0.259E+04   0.277E+00 -.748E-01 -.528E+01   0.531E-04 0.177E-03 0.322E-02
   0.279E+01 -.783E+01 -.715E+03   -.318E+01 0.816E+01 0.715E+03   0.419E+00 -.186E+00 -.299E-01   -.181E-03 0.171E-03 0.626E-02
   0.227E+01 -.137E+01 0.294E+04   -.218E+01 0.131E+01 -.294E+04   -.908E-01 0.949E-01 -.697E+00   -.107E-03 0.192E-03 0.898E-02
   -.526E+01 0.649E+01 -.708E+03   0.576E+01 -.674E+01 0.708E+03   -.310E+00 0.158E+00 0.132E+00   0.218E-03 -.120E-03 0.624E-02
   0.356E+00 -.584E+01 0.115E+04   -.366E+00 0.604E+01 -.115E+04   -.128E-01 -.543E-01 0.749E-01   -.762E-04 -.178E-02 0.194E-01
   -.517E+00 -.808E+00 0.113E+04   0.481E+00 0.863E+00 -.113E+04   0.436E-01 -.598E-01 -.764E+00   0.671E-04 0.376E-05 0.179E-01
   0.426E+01 0.346E+01 0.116E+04   -.444E+01 -.356E+01 -.116E+04   0.324E-01 0.437E-01 -.588E-01   0.156E-02 0.965E-03 0.194E-01
   -.434E+01 0.364E+01 0.113E+04   0.446E+01 -.372E+01 -.113E+04   0.563E-02 -.103E-01 -.517E+00   -.152E-02 0.838E-03 0.196E-01
   -.301E+01 0.181E+01 0.295E+04   0.286E+01 -.167E+01 -.295E+04   0.190E+00 -.167E+00 -.684E+00   0.265E-03 -.892E-04 0.881E-02
   0.270E+01 -.970E+00 0.294E+04   -.257E+01 0.990E+00 -.294E+04   -.156E+00 -.410E-01 -.584E+00   -.281E-03 0.244E-04 0.891E-02
   0.508E+01 0.310E+01 -.687E+03   -.549E+01 -.297E+01 0.687E+03   0.308E+00 -.220E+00 0.134E+00   -.235E-03 0.621E-04 0.635E-02
   -.297E+01 -.203E+01 -.716E+03   0.328E+01 0.175E+01 0.716E+03   -.336E+00 0.275E+00 -.141E+00   0.187E-03 -.976E-04 0.644E-02
 -----------------------------------------------------------------------------------------------
   -.177E+00 -.520E+00 0.219E+02   -.400E-13 -.191E-13 0.682E-12   0.172E+00 0.509E+00 -.220E+02   0.306E-04 0.304E-04 0.147E+00
 
 
 POSITION                                       TOTAL-FORCE (eV/Angst)
 -----------------------------------------------------------------------------------
      4.21079      2.32214     19.01183        -0.081345      0.031909      1.079388
      2.73838      4.71443     21.36095         0.011030      0.028471     -0.037648
      1.48683      2.23696     20.67118         0.007223      0.017794      0.034839
      5.65972      0.92613     21.72916         0.006013     -0.004152      0.005664
      7.31573      4.33143     21.67648        -0.002613     -0.003535      0.006740
      3.54411      4.05673     21.71956        -0.002578      0.005942      0.005253
      2.76621      0.00627     12.08909        -0.009915      0.000718      1.170338
      1.42741      2.32075     19.12121         0.008442      0.073453     -0.164382
      5.59784      4.72775     19.01265         0.022285     -0.025210     -0.154809
      2.80697      4.73050     19.28880        -0.037792     -0.050750      0.020789
      4.16704      3.96935     16.76089         0.036276      0.146291     -0.176383
      2.78078      4.81228     12.09568        -0.002238      0.035811     -0.106611
      5.57654      1.54560     16.74898         0.193303     -0.099608     -0.444522
      5.55799      3.19031     14.41142        -0.022121      0.140157     -0.269083
      2.77803      3.19083     14.45164         0.007829     -0.004525      0.082465
      4.16959      0.78306     14.40271        -0.137969     -0.062282     -0.288093
      1.38806      0.78263     14.44984         0.122658     -0.082954     -0.533943
      4.15584      2.41410     12.08889         0.042899     -0.027715     -0.127041
      1.39058      2.40625     12.09458        -0.028464     -0.021409     -0.101874
      2.79155      1.55471     16.72766        -0.110125     -0.093963     -0.149192
      6.97079      3.96026     16.75286        -0.022800     -0.004443      0.148104
 -----------------------------------------------------------------------------------
    total drift:                               -0.005568     -0.010079      0.008291


--------------------------------------------------------------------------------------------------------



  FREE ENERGIE OF THE ION-ELECTRON SYSTEM (eV)
  ---------------------------------------------------
  free  energy   TOTEN  =      -115.78578835 eV

  energy  without entropy=     -115.74821366  energy(sigma->0) =     -115.77326345
 


--------------------------------------------------------------------------------------------------------


    POTLOK:  cpu time    0.0263: real time    0.0263


--------------------------------------------------------------------------------------------------------


     LOOP+:  cpu time  572.8768: real time  572.9780
    4ORBIT:  cpu time    0.0000: real time    0.0000

 total amount of memory used by VASP MPI-rank0   164312. kBytes
=======================================================================

   base      :      30000. kBytes
   nonlr-proj:       2359. kBytes
   fftplans  :       2967. kBytes
   grid      :       6321. kBytes
   one-center:         93. kBytes
   wavefun   :     122572. kBytes
 
  
  
 General timing and accounting informations for this job:
 ========================================================
  
                  Total CPU time used (sec):      580.685
                            User time (sec):      579.280
                          System time (sec):        1.405
                         Elapsed time (sec):      580.939
  
                   Maximum memory used (kb):      208376.
                   Average memory used (kb):           0.
  
                          Minor page faults:        84179
                          Major page faults:            0
                 Voluntary context switches:          940
