       N       E                     dE             d eps       ncg     rms          rms(c)
DAV:   1     0.976903576054E+03    0.97690E+03   -0.56592E+04  3864   0.103E+03
DAV:   2    -0.182850670569E+02   -0.99519E+03   -0.91678E+03  4728   0.261E+02
DAV:   3    -0.948296227443E+02   -0.76545E+02   -0.68908E+02  4592   0.703E+01
DAV:   4    -0.979452585544E+02   -0.31156E+01   -0.30140E+01  5184   0.152E+01
DAV:   5    -0.980258246221E+02   -0.80566E-01   -0.80252E-01  5088   0.235E+00    0.429E+01
DAV:   6    -0.972770472943E+02    0.74878E+00   -0.23373E+01  4536   0.241E+01    0.378E+01
DAV:   7    -0.136090716425E+03   -0.38814E+02   -0.82172E+01  5992   0.721E+01    0.530E+01
DAV:   8    -0.123697771288E+03    0.12393E+02   -0.60238E+01  5392   0.459E+01    0.454E+01
DAV:   9    -0.107201013242E+03    0.16497E+02   -0.39388E+01  6304   0.426E+01    0.288E+01
DAV:  10    -0.962394705110E+02    0.10962E+02   -0.26780E+01  5360   0.298E+01    0.189E+01
DAV:  11    -0.919332337570E+02    0.43062E+01   -0.13700E+01  5560   0.184E+01    0.753E+00
DAV:  12    -0.918326704534E+02    0.10056E+00   -0.14192E+00  4936   0.476E+00    0.536E+00
DAV:  13    -0.918174399673E+02    0.15230E-01   -0.24517E-01  5088   0.252E+00    0.425E+00
DAV:  14    -0.918256924100E+02   -0.82524E-02   -0.34671E-01  4984   0.316E+00    0.373E+00
DAV:  15    -0.917580412311E+02    0.67651E-01   -0.26226E-01  4240   0.234E+00    0.146E+00
DAV:  16    -0.917395075648E+02    0.18534E-01   -0.63938E-02  4256   0.134E+00    0.833E-01
DAV:  17    -0.917384626439E+02    0.10449E-02   -0.19930E-02  5360   0.696E-01    0.703E-01
DAV:  18    -0.917369450491E+02    0.15176E-02   -0.14363E-02  4952   0.569E-01    0.426E-01
DAV:  19    -0.917353931790E+02    0.15519E-02   -0.32612E-03  4688   0.296E-01    0.258E-01
DAV:  20    -0.917345891645E+02    0.80401E-03   -0.11017E-03  4984   0.148E-01    0.965E-02
DAV:  21    -0.917345804061E+02    0.87585E-05   -0.38379E-04  4760   0.823E-02    0.123E-01
DAV:  22    -0.917344784247E+02    0.10198E-03   -0.54469E-04  4368   0.104E-01    0.582E-02
DAV:  23    -0.917344636762E+02    0.14748E-04   -0.78132E-05  3344   0.365E-02    0.136E-02
DAV:  24    -0.917344893623E+02   -0.25686E-04   -0.14440E-05  2408   0.156E-02    0.173E-02
DAV:  25    -0.917345349367E+02   -0.45574E-04   -0.90714E-06  2352   0.124E-02    0.713E-03
DAV:  26    -0.917345713171E+02   -0.36380E-04   -0.44867E-06  2352   0.825E-03    0.837E-03
DAV:  27    -0.917346158030E+02   -0.44486E-04   -0.34231E-06  2344   0.644E-03    0.908E-03
DAV:  28    -0.917346547910E+02   -0.38988E-04   -0.40013E-06  2472   0.553E-03    0.436E-03
DAV:  29    -0.917346779689E+02   -0.23178E-04   -0.19533E-06  2408   0.427E-03    0.184E-03
DAV:  30    -0.917346889460E+02   -0.10977E-04   -0.11476E-06  2304   0.316E-03    0.231E-03
DAV:  31    -0.917346949475E+02   -0.60015E-05   -0.60485E-07  2224   0.207E-03
   1 F= -.91734678E+02 E0= -.91726247E+02  d E =-.252925E-01
