 vasp.5.4.4.18Apr17-6-g9f103f2a35 (build Apr 28 2017 10:53:45) complex          
  
 executed on             LinuxIFC date 2019.07.18  17:02:24
 running on   16 total cores
 distrk:  each k-point on   16 cores,    1 groups
 distr:  one band on NCORES_PER_BAND=   4 cores,    4 groups


--------------------------------------------------------------------------------------------------------


 INCAR:
 POTCAR:    PAW_PBE Au 04Oct2007                  
 POTCAR:    PAW_PBE Ir 06Sep2000                  
 POTCAR:    PAW_PBE Pt 04Feb2005                  
 POTCAR:    PAW_PBE Au 04Oct2007                  
   VRHFIN =Au: s1d10                                                            
   LEXCH  = PE                                                                  
   EATOM  =   926.0867 eV,   68.0654 Ry                                         
                                                                                
   TITEL  = PAW_PBE Au 04Oct2007                                                
   LULTRA =        F    use ultrasoft PP ?                                      
   IUNSCR =        1    unscreen: 0-lin 1-nonlin 2-no                           
   RPACOR =    2.330    partial core radius                                     
   POMASS =  196.966; ZVAL   =   11.000    mass and valenz                      
   RCORE  =    2.500    outmost cutoff radius                                   
   RWIGS  =    2.840; RWIGS  =    1.503    wigner-seitz radius (au A)           
   ENMAX  =  229.943; ENMIN  =  172.457 eV                                      
   ICORE  =        3    local potential                                         
   LCOR   =        T    correct aug charges                                     
   LPAW   =        T    paw PP                                                  
   EAUG   =  356.670                                                            
   DEXC   =    0.000                                                            
   RMAX   =    2.562    core radius for proj-oper                               
   RAUG   =    1.300    factor for augmentation sphere                          
   RDEP   =    2.598    radius for radial grids                                 
   RDEPT  =    2.193    core radius for aug-charge                              
                                                                                
   Atomic configuration                                                         
   16 entries                                                                   
     n  l   j            E        occ.                                          
     1  0  0.50    -80748.5001   2.0000                                         
     2  0  0.50    -14244.7466   2.0000                                         
     2  1  1.50    -12310.9591   6.0000                                         
     3  0  0.50     -3362.1768   2.0000                                         
     3  1  1.50     -2801.5463   6.0000                                         
     3  2  2.50     -2203.8206  10.0000                                         
     4  0  0.50      -729.8168   2.0000                                         
     4  1  1.50      -546.0527   6.0000                                         
     4  2  2.50      -325.7302  10.0000                                         
     4  3  3.50       -81.1472  14.0000                                         
     5  0  0.50      -108.3201   2.0000                                         
     5  1  1.50       -59.7479   6.0000                                         
     5  2  2.50        -6.8783  10.0000                                         
     6  0  0.50        -5.7602   1.0000                                         
     6  1  1.50        -6.8029   0.0000                                         
     5  3  2.50        -1.3606   0.0000                                         
   Description                                                                  
     l       E           TYP  RCUT    TYP  RCUT                                 
     2     -6.8782861     23  2.500                                             
     2     -8.2388687     23  2.500                                             
     0     -5.7601759     23  2.500                                             
     0     -0.8493231     23  2.500                                             
     1     -2.7211652     23  2.500                                             
     1     27.2116520     23  2.500                                             
     3     -1.3605826     23  2.500                                             
  local pseudopotential read in
  partial core-charges read in
  partial kinetic energy density read in
  atomic valenz-charges read in
  non local Contribution for L=           2  read in
    real space projection operators read in
  non local Contribution for L=           2  read in
    real space projection operators read in
  non local Contribution for L=           0  read in
    real space projection operators read in
  non local Contribution for L=           0  read in
    real space projection operators read in
  non local Contribution for L=           1  read in
    real space projection operators read in
  non local Contribution for L=           1  read in
    real space projection operators read in
    PAW grid and wavefunctions read in
 
   number of l-projection  operators is LMAX  =           6
   number of lm-projection operators is LMMAX =          18
 
 POTCAR:    PAW_PBE Ir 06Sep2000                  
   VRHFIN =Ir: s1d8                                                             
   LEXCH  = PE                                                                  
   EATOM  =   560.1833 eV,   41.1723 Ry                                         
                                                                                
   TITEL  = PAW_PBE Ir 06Sep2000                                                
   LULTRA =        F    use ultrasoft PP ?                                      
   IUNSCR =        1    unscreen: 0-lin 1-nonlin 2-no                           
   RPACOR =    2.250    partial core radius                                     
   POMASS =  192.220; ZVAL   =    9.000    mass and valenz                      
   RCORE  =    2.600    outmost cutoff radius                                   
   RWIGS  =    2.690; RWIGS  =    1.423    wigner-seitz radius (au A)           
   ENMAX  =  210.864; ENMIN  =  158.148 eV                                      
   RCLOC  =    1.857    cutoff for local pot                                    
   LCOR   =        T    correct aug charges                                     
   LPAW   =        T    paw PP                                                  
   EAUG   =  318.962                                                            
   DEXC   =    0.000                                                            
   RMAX   =    2.667    core radius for proj-oper                               
   RAUG   =    1.300    factor for augmentation sphere                          
   RDEP   =    2.748    radius for radial grids                                 
   RDEPT  =    2.300    core radius for aug-charge                              
                                                                                
   Atomic configuration                                                         
   16 entries                                                                   
     n  l   j            E        occ.                                          
     1  0  0.50    -76100.0449   2.0000                                         
     2  0  0.50    -13308.1683   2.0000                                         
     2  1  1.50    -11558.0021   6.0000                                         
     3  0  0.50     -3110.7274   2.0000                                         
     3  1  1.50     -2599.2109   6.0000                                         
     3  2  2.50     -2037.1515  10.0000                                         
     4  0  0.50      -661.6001   2.0000                                         
     4  1  1.50      -493.8981   6.0000                                         
     4  2  2.50      -288.1909  10.0000                                         
     4  3  3.50       -59.5718  14.0000                                         
     5  0  0.50       -95.3879   2.0000                                         
     5  1  1.50       -52.2747   6.0000                                         
     5  2  2.50        -5.4180   8.0000                                         
     6  0  0.50        -5.5479   1.0000                                         
     6  1  1.50        -6.8029   0.0000                                         
     5  3  2.50        -1.3606   0.0000                                         
   Description                                                                  
     l       E           TYP  RCUT    TYP  RCUT                                 
     2     -5.4179967     23  2.600                                             
     2     -6.7785793     23  2.600                                             
     0     -5.5478636     23  2.600                                             
     0      2.2542272     23  2.600                                             
     1     -2.7211652     23  2.600                                             
     1     20.4087390     23  2.600                                             
  local pseudopotential read in
  partial core-charges read in
  partial kinetic energy density read in
  atomic valenz-charges read in
  non local Contribution for L=           2  read in
    real space projection operators read in
  non local Contribution for L=           2  read in
    real space projection operators read in
  non local Contribution for L=           0  read in
    real space projection operators read in
  non local Contribution for L=           0  read in
    real space projection operators read in
  non local Contribution for L=           1  read in
    real space projection operators read in
  non local Contribution for L=           1  read in
    real space projection operators read in
    PAW grid and wavefunctions read in
 
   number of l-projection  operators is LMAX  =           6
   number of lm-projection operators is LMMAX =          18
 
 POTCAR:    PAW_PBE Pt 04Feb2005                  
   VRHFIN =Pt: s1d9                                                             
   LEXCH  = PE                                                                  
   EATOM  =   729.1176 eV,   53.5886 Ry                                         
                                                                                
   TITEL  = PAW_PBE Pt 04Feb2005                                                
   LULTRA =        F    use ultrasoft PP ?                                      
   IUNSCR =        1    unscreen: 0-lin 1-nonlin 2-no                           
   RPACOR =    2.330    partial core radius                                     
   POMASS =  195.080; ZVAL   =   10.000    mass and valenz                      
   RCORE  =    2.600    outmost cutoff radius                                   
   RWIGS  =    2.750; RWIGS  =    1.455    wigner-seitz radius (au A)           
   ENMAX  =  230.283; ENMIN  =  172.712 eV                                      
   ICORE  =        3    local potential                                         
   LCOR   =        T    correct aug charges                                     
   LPAW   =        T    paw PP                                                  
   EAUG   =  358.966                                                            
   DEXC   =    0.000                                                            
   RMAX   =    2.658    core radius for proj-oper                               
   RAUG   =    1.300    factor for augmentation sphere                          
   RDEP   =    2.761    radius for radial grids                                 
   RDEPT  =    2.203    core radius for aug-charge                              
                                                                                
   Atomic configuration                                                         
   16 entries                                                                   
     n  l   j            E        occ.                                          
     1  0  0.50    -78401.1885   2.0000                                         
     2  0  0.50    -13770.7750   2.0000                                         
     2  1  1.50    -11931.0468   6.0000                                         
     3  0  0.50     -3234.7234   2.0000                                         
     3  1  1.50     -2699.2216   6.0000                                         
     3  2  2.50     -2119.5714  10.0000                                         
     4  0  0.50      -695.1528   2.0000                                         
     4  1  1.50      -519.6034   6.0000                                         
     4  2  2.50      -306.6786  10.0000                                         
     4  3  3.50       -70.1041  14.0000                                         
     5  0  0.50      -101.7747   2.0000                                         
     5  1  1.50       -55.9873   6.0000                                         
     5  2  2.50        -6.1423   9.0000                                         
     6  0  0.50        -5.6573   1.0000                                         
     6  1  1.50        -6.8029   0.0000                                         
     5  3  2.50        -1.3606   0.0000                                         
   Description                                                                  
     l       E           TYP  RCUT    TYP  RCUT                                 
     2     -6.1423404     23  2.500                                             
     2     -7.5029230     23  2.500                                             
     0     -5.6573207     23  2.500                                             
     0      0.7416693     23  2.500                                             
     1     -2.7211652     23  2.600                                             
     1     20.4087390     23  2.600                                             
     3     -1.3605826     23  2.500                                             
  local pseudopotential read in
  partial core-charges read in
  partial kinetic energy density read in
  atomic valenz-charges read in
  non local Contribution for L=           2  read in
    real space projection operators read in
  non local Contribution for L=           2  read in
    real space projection operators read in
  non local Contribution for L=           0  read in
    real space projection operators read in
  non local Contribution for L=           0  read in
    real space projection operators read in
  non local Contribution for L=           1  read in
    real space projection operators read in
  non local Contribution for L=           1  read in
    real space projection operators read in
    PAW grid and wavefunctions read in
 
   number of l-projection  operators is LMAX  =           6
   number of lm-projection operators is LMMAX =          18
 
 Optimization of the real space projectors (new method)

 maximal supplied QI-value         = 15.12
 optimisation between [QCUT,QGAM] = [  9.52, 19.05] = [ 25.40,101.61] Ry 
 Optimized for a Real-space Cutoff    1.57 Angstroem

   l    n(q)    QCUT    max X(q) W(low)/X(q) W(high)/X(q)  e(spline) 
   2      8     9.524    60.898    0.38E-03    0.43E-04    0.84E-07
   2      8     9.524    58.894    0.38E-03    0.47E-04    0.88E-07
   0      9     9.524   109.617    0.60E-04    0.64E-04    0.80E-07
   0      9     9.524    75.026    0.59E-04    0.62E-04    0.78E-07
   1      8     9.524    16.344    0.99E-04    0.18E-03    0.87E-07
   1      8     9.524    10.160    0.78E-04    0.15E-03    0.74E-07
 Optimization of the real space projectors (new method)

 maximal supplied QI-value         = 14.36
 optimisation between [QCUT,QGAM] = [  9.48, 19.10] = [ 25.16,102.17] Ry 
 Optimized for a Real-space Cutoff    1.57 Angstroem

   l    n(q)    QCUT    max X(q) W(low)/X(q) W(high)/X(q)  e(spline) 
   2      8     9.479   134.116    0.18E-03    0.75E-03    0.26E-06
   2      8     9.479   130.192    0.18E-03    0.75E-03    0.27E-06
   0      9     9.479    60.310    0.39E-03    0.24E-03    0.63E-07
   0      9     9.479    39.218    0.36E-03    0.22E-03    0.59E-07
   1      8     9.479    18.439    0.20E-03    0.15E-03    0.16E-06
   1      8     9.479    12.760    0.16E-03    0.11E-03    0.13E-06
 Optimization of the real space projectors (new method)

 maximal supplied QI-value         = 14.36
 optimisation between [QCUT,QGAM] = [  9.48, 19.10] = [ 25.16,102.17] Ry 
 Optimized for a Real-space Cutoff    1.57 Angstroem

   l    n(q)    QCUT    max X(q) W(low)/X(q) W(high)/X(q)  e(spline) 
   2      8     9.479    66.195    0.35E-03    0.53E-04    0.87E-07
   2      8     9.479    64.643    0.35E-03    0.57E-04    0.91E-07
   0      9     9.479    95.520    0.50E-04    0.62E-04    0.81E-07
   0      9     9.479    63.403    0.49E-04    0.60E-04    0.78E-07
   1      8     9.479    19.961    0.10E-03    0.87E-04    0.11E-06
   1      8     9.479    13.289    0.88E-04    0.71E-04    0.97E-07
  PAW_PBE Au 04Oct2007                  :
 energy of atom  1       EATOM= -926.0867
 kinetic energy error for atom=    0.0152 (will be added to EATOM!!)
  PAW_PBE Ir 06Sep2000                  :
 energy of atom  2       EATOM= -560.1833
 kinetic energy error for atom=    0.0056 (will be added to EATOM!!)
  PAW_PBE Pt 04Feb2005                  :
 energy of atom  3       EATOM= -729.1176
 kinetic energy error for atom=    0.0144 (will be added to EATOM!!)
 
 
 POSCAR: Au Ir Pt                                
  positions in cartesian coordinates
  No initial velocities read in
 exchange correlation table for  LEXCH =        8
   RHO(1)=    0.500       N(1)  =     2000
   RHO(2)=  100.500       N(2)  =     4000
 


--------------------------------------------------------------------------------------------------------


 ion  position               nearest neighbor table
   1  0.833  0.333  0.544-  11 2.77  11 2.77  12 2.77  12 2.77  10 2.77  10 2.77   6 2.81   9 2.81
                             7 2.81  15 2.83  13 2.83  16 2.83
   2  0.500  0.000  0.373-   5 2.77   4 2.77   5 2.77   4 2.77   3 2.77   3 2.77   7 2.77   6 2.77
                             9 2.77
   3  0.000  0.000  0.373-   4 2.77   4 2.77   5 2.77   5 2.77   2 2.77   2 2.77   6 2.77   7 2.77
                             8 2.77
   4  0.000  0.500  0.373-   3 2.77   2 2.77   3 2.77   2 2.77   5 2.77   5 2.77   8 2.77   6 2.77
                             9 2.77
   5  0.500  0.500  0.373-   2 2.77   2 2.77   3 2.77   3 2.77   4 2.77   4 2.77   9 2.77   8 2.77
                             7 2.77
   6  0.167  0.167  0.458-   8 2.77   8 2.77   9 2.77   9 2.77   7 2.77   7 2.77   3 2.77   2 2.77
                             4 2.77   1 2.81  12 2.81  10 2.81
   7  0.667  0.167  0.458-   9 2.77   8 2.77   9 2.77   8 2.77   6 2.77   6 2.77   2 2.77   3 2.77
                             5 2.77  10 2.81  11 2.81   1 2.81
   8  0.167  0.667  0.458-   6 2.77   6 2.77   7 2.77   7 2.77   9 2.77   9 2.77   4 2.77   3 2.77
                             5 2.77  10 2.81  11 2.81  12 2.81
   9  0.667  0.667  0.458-   7 2.77   6 2.77   7 2.77   6 2.77   8 2.77   8 2.77   5 2.77   4 2.77
                             2 2.77   1 2.81  12 2.81  11 2.81
  10  0.333  0.333  0.544-  12 2.77  11 2.77  12 2.77  11 2.77   1 2.77   1 2.77   8 2.81   7 2.81
                             6 2.81  16 2.83  15 2.83  14 2.83
  11  0.833  0.833  0.544-   1 2.77   1 2.77  10 2.77  10 2.77  12 2.77  12 2.77   8 2.81   7 2.81
                             9 2.81  13 2.83  14 2.83  15 2.83
  12  0.333  0.833  0.544-  10 2.77   1 2.77  10 2.77   1 2.77  11 2.77  11 2.77   6 2.81   9 2.81
                             8 2.81  14 2.83  13 2.83  16 2.83
  13  0.000  0.000  0.631-  15 2.77  15 2.77  16 2.77  16 2.77  14 2.77  14 2.77  11 2.83   1 2.83
                            12 2.83
  14  0.500  0.000  0.631-  16 2.77  15 2.77  16 2.77  15 2.77  13 2.77  13 2.77  12 2.83  11 2.83
                            10 2.83
  15  0.000  0.500  0.631-  13 2.77  13 2.77  14 2.77  14 2.77  16 2.77  16 2.77   1 2.83  10 2.83
                            11 2.83
  16  0.500  0.500  0.631-  14 2.77  13 2.77  14 2.77  13 2.77  15 2.77  15 2.77  10 2.83   1 2.83
                            12 2.83
 
  LATTYP: Found a hexagonal cell.
 ALAT       =     5.5437171645
 C/A-ratio  =     4.8324325305
  
  Lattice vectors:
  
 A1 = (   2.7718585823,  -4.8009998959,   0.0000000000)
 A2 = (  -5.5437171645,   0.0000000000,   0.0000000000)
 A3 = (   0.0000000000,   0.0000000000, -26.7896391657)


Analysis of symmetry for initial positions (statically):
=====================================================================
 Subroutine PRICEL returns:
 Original cell was already a primitive cell.
 

 Routine SETGRP: Setting up the symmetry group for a 
 hexagonal supercell.


 Subroutine GETGRP returns: Found  6 space group operations
 (whereof  2 operations were pure point group operations)
 out of a pool of 24 trial point group operations.


The static configuration has the point symmetry C_1h.
 The point group associated with its full space group is C_3v.


Analysis of symmetry for dynamics (positions and initial velocities):
=====================================================================
 Subroutine PRICEL returns:
 Original cell was already a primitive cell.
 

 Routine SETGRP: Setting up the symmetry group for a 
 hexagonal supercell.


 Subroutine GETGRP returns: Found  6 space group operations
 (whereof  2 operations were pure point group operations)
 out of a pool of 24 trial point group operations.


The dynamic configuration has the point symmetry C_1h.
 The point group associated with its full space group is C_3v.


Analysis of constrained symmetry for selective dynamics:
=====================================================================
 Subroutine PRICEL returns:
 Original cell was already a primitive cell.
 

 Routine SETGRP: Setting up the symmetry group for a 
 hexagonal supercell.


 Subroutine GETGRP returns: Found  6 space group operations
 (whereof  2 operations were pure point group operations)
 out of a pool of 24 trial point group operations.


The constrained configuration has the point symmetry C_1h.
 The point group associated with its full space group is C_3v.


 Subroutine INISYM returns: Found  6 space group operations
 (whereof  2 operations are pure point group operations),
 and found     1 'primitive' translations

 
 
 KPOINTS: 0.7.Ir1.Au8                             

Automatic generation of k-mesh.
Space group operators:
 irot       det(A)        alpha          n_x          n_y          n_z        tau_x        tau_y        tau_z
    1     1.000000     0.000001     1.000000     0.000000     0.000000     0.000000     0.000000     0.000000
    2    -1.000000   180.000000     1.000000     0.000000     0.000000     0.000000     0.000000     0.000000
    3     1.000000   120.000000     0.000000     0.000000     1.000000     0.500000    -0.500000     0.000000
    4     1.000000   120.000000     0.000000     0.000000    -1.000000     0.000000    -0.500000     0.000000
    5    -1.000000   180.000000     0.500000    -0.866025     0.000000     0.500000    -0.500000     0.000000
    6    -1.000000   180.000000    -0.500000    -0.866025     0.000000    -0.000000    -0.500000     0.000000
 
 Subroutine IBZKPT returns following result:
 ===========================================
 
 Found     20 irreducible k-points:
 
 Following reciprocal coordinates:
            Coordinates               Weight
  0.062500  0.062500  0.000000     48.000000
  0.187500  0.062500  0.000000     96.000000
  0.312500  0.062500  0.000000     96.000000
  0.437500  0.062500  0.000000     96.000000
 -0.437500  0.062500  0.000000     96.000000
 -0.312500  0.062500  0.000000     96.000000
 -0.187500  0.062500  0.000000     96.000000
 -0.062500  0.062500  0.000000     48.000000
  0.187500  0.187500  0.000000     48.000000
  0.312500  0.187500  0.000000     96.000000
  0.437500  0.187500  0.000000     96.000000
 -0.437500  0.187500  0.000000     96.000000
 -0.312500  0.187500  0.000000     96.000000
 -0.187500  0.187500  0.000000     48.000000
  0.312500  0.312500  0.000000     48.000000
  0.437500  0.312500  0.000000     96.000000
 -0.437500  0.312500  0.000000     96.000000
 -0.312500  0.312500  0.000000     48.000000
  0.437500  0.437500  0.000000     48.000000
 -0.437500  0.437500  0.000000     48.000000
 
 Following cartesian coordinates:
            Coordinates               Weight
  0.011274  0.006509  0.000000     48.000000
  0.033822 -0.006509  0.000000     96.000000
  0.056370 -0.019527  0.000000     96.000000
  0.078918 -0.032545  0.000000     96.000000
 -0.078918  0.058582  0.000000     96.000000
 -0.056370  0.045563  0.000000     96.000000
 -0.033822  0.032545  0.000000     96.000000
 -0.011274  0.019527  0.000000     48.000000
  0.033822  0.019527  0.000000     48.000000
  0.056370  0.006509  0.000000     96.000000
  0.078918 -0.006509  0.000000     96.000000
 -0.078918  0.084618  0.000000     96.000000
 -0.056370  0.071600  0.000000     96.000000
 -0.033822  0.058582  0.000000     48.000000
  0.056370  0.032545  0.000000     48.000000
  0.078918  0.019527  0.000000     96.000000
 -0.078918  0.110654  0.000000     96.000000
 -0.056370  0.097636  0.000000     48.000000
  0.078918  0.045563  0.000000     48.000000
 -0.078918  0.136690  0.000000     48.000000
 


--------------------------------------------------------------------------------------------------------




 Dimension of arrays:
   k-points           NKPTS =     20   k-points in BZ     NKDIM =     20   number of bands    NBANDS=     96
   number of dos      NEDOS =    301   number of ions     NIONS =     16
   non local maximal  LDIM  =      6   non local SUM 2l+1 LMDIM =     18
   total plane-waves  NPLWV =  98784
   max r-space proj   IRMAX =   2277   max aug-charges    IRDMAX=  10217
   dimension x,y,z NGX =    28 NGY =   28 NGZ =  126
   dimension x,y,z NGXF=    56 NGYF=   56 NGZF=  252
   support grid    NGXF=    56 NGYF=   56 NGZF=  252
   ions per type =               1   1  14
   NGX,Y,Z   is equivalent  to a cutoff of   8.40,  8.40,  7.82 a.u.
   NGXF,Y,Z  is equivalent  to a cutoff of  16.79, 16.79, 15.64 a.u.

 SYSTEM =  0.7.Ir1.Au8                             
 POSCAR =  Au Ir Pt                                

 Startparameter for this run:
   NWRITE =      2    write-flag & timer
   PREC   = normal    normal or accurate (medium, high low for compatibility)
   ISTART =      0    job   : 0-new  1-cont  2-samecut
   ICHARG =      2    charge: 1-file 2-atom 10-const
   ISPIN  =      1    spin polarized calculation?
   LNONCOLLINEAR =      F non collinear calculations
   LSORBIT =      F    spin-orbit coupling
   INIWAV =      1    electr: 0-lowe 1-rand  2-diag
   LASPH  =      F    aspherical Exc in radial PAW
   METAGGA=      F    non-selfconsistent MetaGGA calc.

 Electronic Relaxation 1
   ENCUT  =  350.0 eV  25.72 Ry    5.07 a.u.   8.46  8.46 40.87*2*pi/ulx,y,z
   ENINI  =  350.0     initial cutoff
   ENAUG  =  359.0 eV  augmentation charge cutoff
   NELM   =   1000;   NELMIN=  5; NELMDL= -5     # of ELM steps 
   EDIFF  = 0.1E-04   stopping-criterion for ELM
   LREAL  =      T    real-space projection
   NLSPLINE    = F    spline interpolate recip. space projectors
   LCOMPAT=      F    compatible to vasp.4.4
   GGA_COMPAT  = T    GGA compatible to vasp.4.4-vasp.4.6
   LMAXPAW     = -100 max onsite density
   LMAXMIX     =    2 max onsite mixed and CHGCAR
   VOSKOWN=      0    Vosko Wilk Nusair interpolation
   ROPT   =   -0.00050  -0.00050  -0.00050
 Ionic relaxation
   EDIFFG = 0.1E-03   stopping-criterion for IOM
   NSW    =      0    number of steps for IOM
   NBLOCK =      1;   KBLOCK =      1    inner block; outer block 
   IBRION =     -1    ionic relax: 0-MD 1-quasi-New 2-CG
   NFREE  =      0    steps in history (QN), initial steepest desc. (CG)
   ISIF   =      2    stress and relaxation
   IWAVPR =     10    prediction:  0-non 1-charg 2-wave 3-comb
   ISYM   =      2    0-nonsym 1-usesym 2-fastsym
   LCORR  =      T    Harris-Foulkes like correction to forces

   POTIM  = 0.5000    time-step for ionic-motion
   TEIN   =    0.0    initial temperature
   TEBEG  =    0.0;   TEEND  =   0.0 temperature during run
   SMASS  =  -3.00    Nose mass-parameter (am)
   estimated Nose-frequenzy (Omega)   =  0.10E-29 period in steps =****** mass=  -0.702E-27a.u.
   SCALEE = 1.0000    scale energy and forces
   NPACO  =    256;   APACO  = 16.0  distance and # of slots for P.C.
   PSTRESS=    0.0 pullay stress

  Mass of Ions in am
   POMASS = 196.97192.22195.08
  Ionic Valenz
   ZVAL   =  11.00  9.00 10.00
  Atomic Wigner-Seitz radii
   RWIGS  =  -1.00 -1.00 -1.00
  virtual crystal weights 
   VCA    =   1.00  1.00  1.00
   NELECT =     160.0000    total number of electrons
   NUPDOWN=      -1.0000    fix difference up-down

 DOS related values:
   EMIN   =  10.00;   EMAX   =-10.00  energy-range for DOS
   EFERMI =   0.00
   ISMEAR =     1;   SIGMA  =   0.20  broadening in eV -4-tet -1-fermi 0-gaus

 Electronic relaxation 2 (details)
   IALGO  =     38    algorithm
   LDIAG  =      T    sub-space diagonalisation (order eigenvalues)
   LSUBROT=      F    optimize rotation matrix (better conditioning)
   TURBO    =      0    0=normal 1=particle mesh
   IRESTART =      0    0=no restart 2=restart with 2 vectors
   NREBOOT  =      0    no. of reboots
   NMIN     =      0    reboot dimension
   EREF     =   0.00    reference energy to select bands
   IMIX   =      4    mixing-type and parameters
     AMIX     =   0.40;   BMIX     =  1.00
     AMIX_MAG =   1.60;   BMIX_MAG =  1.00
     AMIN     =   0.10
     WC   =   100.;   INIMIX=   1;  MIXPRE=   1;  MAXMIX= -45

 Intra band minimization:
   WEIMIN = 0.0000     energy-eigenvalue tresh-hold
   EBREAK =  0.26E-07  absolut break condition
   DEPER  =   0.30     relativ break condition  

   TIME   =   0.40     timestep for ELM

  volume/ion in A,a.u.               =      44.56       300.73
  Fermi-wavevector in a.u.,A,eV,Ry     =   0.994829  1.879954 13.465469  0.989684
  Thomas-Fermi vector in A             =   2.126807
 
 Write flags
   LWAVE        =      F    write WAVECAR
   LDOWNSAMPLE  =      F    k-point downsampling of WAVECAR
   LCHARG       =      F    write CHGCAR
   LVTOT        =      F    write LOCPOT, total local potential
   LVHAR        =      F    write LOCPOT, Hartree potential only
   LELF         =      F    write electronic localiz. function (ELF)
   LORBIT       =      0    0 simple, 1 ext, 2 COOP (PROOUT), +10 PAW based schemes


 Dipole corrections
   LMONO  =      F    monopole corrections only (constant potential shift)
   LDIPOL =      F    correct potential (dipole corrections)
   IDIPOL =      3    1-x, 2-y, 3-z, 4-all directions 
   EPSILON=  1.0000000 bulk dielectric constant

 Exchange correlation treatment:
   GGA     =    --    GGA type
   LEXCH   =     8    internal setting for exchange type
   VOSKOWN=      0    Vosko Wilk Nusair interpolation
   LHFCALC =     F    Hartree Fock is set to
   LHFONE  =     F    Hartree Fock one center treatment
   AEXX    =    0.0000 exact exchange contribution

 Linear response parameters
   LEPSILON=     F    determine dielectric tensor
   LRPA    =     F    only Hartree local field effects (RPA)
   LNABLA  =     F    use nabla operator in PAW spheres
   LVEL    =     F    velocity operator in full k-point grid
   LINTERFAST=   F  fast interpolation
   KINTER  =     0    interpolate to denser k-point grid
   CSHIFT  =0.1000    complex shift for real part using Kramers Kronig
   OMEGAMAX=  -1.0    maximum frequency
   DEG_THRESHOLD= 0.2000000E-02 threshold for treating states as degnerate
   RTIME   =   -0.100 relaxation time in fs
  (WPLASMAI=    0.000 imaginary part of plasma frequency in eV, 0.658/RTIME)
   DFIELD  = 0.0000000 0.0000000 0.0000000 field for delta impulse in time
 
 Orbital magnetization related:
   ORBITALMAG=     F  switch on orbital magnetization
   LCHIMAG   =     F  perturbation theory with respect to B field
   DQ        =  0.001000  dq finite difference perturbation B field
   LLRAUG    =     F  two centre corrections for induced B field



--------------------------------------------------------------------------------------------------------


 Static calculation
 charge density and potential will be updated during run
 non-spin polarized calculation
 Variant of blocked Davidson
 Davidson routine will perform the subspace rotation
 perform sub-space diagonalisation
    after iterative eigenvector-optimisation
 modified Broyden-mixing scheme, WC =      100.0
 initial mixing is a Kerker type mixing with AMIX =  0.4000 and BMIX =      1.0000
 Hartree-type preconditioning will be used
 using additional bands           16
 real space projection scheme for non local part
 use partial core corrections
 calculate Harris-corrections to forces 
   (improved forces if not selfconsistent)
 use gradient corrections 
 use of overlap-Matrix (Vanderbilt PP)
 Methfessel and Paxton  Order N= 1 SIGMA  =   0.20


--------------------------------------------------------------------------------------------------------


  energy-cutoff  :      350.00
  volume of cell :      713.02
      direct lattice vectors                 reciprocal lattice vectors
     5.543717165  0.000000000  0.000000000     0.180384383 -0.104144972  0.000000000
     2.771858582  4.800999896  0.000000000     0.000000000  0.208289944  0.000000000
     0.000000000  0.000000000 26.789639166     0.000000000  0.000000000  0.037327864

  length of vectors
     5.543717165  5.543717165 26.789639166     0.208289944  0.208289944  0.037327864


 
 k-points in units of 2pi/SCALE and weight: 0.7.Ir1.Au8                             
   0.01127402  0.00650906  0.00000000       0.031
   0.03382207 -0.00650906  0.00000000       0.062
   0.05637012 -0.01952718  0.00000000       0.062
   0.07891817 -0.03254530  0.00000000       0.062
  -0.07891817  0.05858155  0.00000000       0.062
  -0.05637012  0.04556343  0.00000000       0.062
  -0.03382207  0.03254530  0.00000000       0.062
  -0.01127402  0.01952718  0.00000000       0.031
   0.03382207  0.01952718  0.00000000       0.031
   0.05637012  0.00650906  0.00000000       0.062
   0.07891817 -0.00650906  0.00000000       0.062
  -0.07891817  0.08461779  0.00000000       0.062
  -0.05637012  0.07159967  0.00000000       0.062
  -0.03382207  0.05858155  0.00000000       0.031
   0.05637012  0.03254530  0.00000000       0.031
   0.07891817  0.01952718  0.00000000       0.062
  -0.07891817  0.11065403  0.00000000       0.062
  -0.05637012  0.09763591  0.00000000       0.031
   0.07891817  0.04556343  0.00000000       0.031
  -0.07891817  0.13669028  0.00000000       0.031
 
 k-points in reciprocal lattice and weights: 0.7.Ir1.Au8                             
   0.06250000  0.06250000  0.00000000       0.031
   0.18750000  0.06250000  0.00000000       0.062
   0.31250000  0.06250000  0.00000000       0.062
   0.43750000  0.06250000  0.00000000       0.062
  -0.43750000  0.06250000  0.00000000       0.062
  -0.31250000  0.06250000  0.00000000       0.062
  -0.18750000  0.06250000  0.00000000       0.062
  -0.06250000  0.06250000  0.00000000       0.031
   0.18750000  0.18750000  0.00000000       0.031
   0.31250000  0.18750000  0.00000000       0.062
   0.43750000  0.18750000  0.00000000       0.062
  -0.43750000  0.18750000  0.00000000       0.062
  -0.31250000  0.18750000  0.00000000       0.062
  -0.18750000  0.18750000  0.00000000       0.031
   0.31250000  0.31250000  0.00000000       0.031
   0.43750000  0.31250000  0.00000000       0.062
  -0.43750000  0.31250000  0.00000000       0.062
  -0.31250000  0.31250000  0.00000000       0.031
   0.43750000  0.43750000  0.00000000       0.031
  -0.43750000  0.43750000  0.00000000       0.031
 
 position of ions in fractional coordinates (direct lattice) 
   0.83333333  0.33333333  0.54381573
   0.50000000  0.00000000  0.37327864
   0.00000000  0.00000000  0.37327864
   0.00000000  0.50000000  0.37327864
   0.50000000  0.50000000  0.37327864
   0.16666667  0.16666667  0.45775955
   0.66666667  0.16666667  0.45775955
   0.16666667  0.66666667  0.45775955
   0.66666667  0.66666667  0.45775955
   0.33333333  0.33333333  0.54381573
   0.83333333  0.83333333  0.54381573
   0.33333333  0.83333333  0.54381573
   0.00000000  0.00000000  0.63112717
   0.50000000  0.00000000  0.63112717
   0.00000000  0.50000000  0.63112717
   0.50000000  0.50000000  0.63112717
 
 position of ions in cartesian coordinates  (Angst):
   5.54371716  1.60033330 14.56862716
   2.77185858  0.00000000 10.00000000
   0.00000000  0.00000000 10.00000000
   1.38592929  2.40049995 10.00000000
   4.15778787  2.40049995 10.00000000
   1.38592929  0.80016665 12.26321306
   4.15778787  0.80016665 12.26321306
   2.77185858  3.20066660 12.26321306
   5.54371716  3.20066660 12.26321306
   2.77185858  1.60033330 14.56862716
   6.92964646  4.00083325 14.56862716
   4.15778787  4.00083325 14.56862716
   0.00000000  0.00000000 16.90766902
   2.77185858  0.00000000 16.90766902
   1.38592929  2.40049995 16.90766902
   4.15778787  2.40049995 16.90766902
 


--------------------------------------------------------------------------------------------------------


 k-point  1 :   0.0625 0.0625 0.0000  plane waves:   10681
 k-point  2 :   0.1875 0.0625 0.0000  plane waves:   10654
 k-point  3 :   0.3125 0.0625 0.0000  plane waves:   10616
 k-point  4 :   0.4375 0.0625 0.0000  plane waves:   10577
 k-point  5 :  -0.4375 0.0625 0.0000  plane waves:   10551
 k-point  6 :  -0.3125 0.0625 0.0000  plane waves:   10587
 k-point  7 :  -0.1875 0.0625 0.0000  plane waves:   10616
 k-point  8 :  -0.0625 0.0625 0.0000  plane waves:   10677
 k-point  9 :   0.1875 0.1875 0.0000  plane waves:   10631
 k-point 10 :   0.3125 0.1875 0.0000  plane waves:   10620
 k-point 11 :   0.4375 0.1875 0.0000  plane waves:   10599
 k-point 12 :  -0.4375 0.1875 0.0000  plane waves:   10577
 k-point 13 :  -0.3125 0.1875 0.0000  plane waves:   10577
 k-point 14 :  -0.1875 0.1875 0.0000  plane waves:   10613
 k-point 15 :   0.3125 0.3125 0.0000  plane waves:   10603
 k-point 16 :   0.4375 0.3125 0.0000  plane waves:   10605
 k-point 17 :  -0.4375 0.3125 0.0000  plane waves:   10593
 k-point 18 :  -0.3125 0.3125 0.0000  plane waves:   10592
 k-point 19 :   0.4375 0.4375 0.0000  plane waves:   10562
 k-point 20 :  -0.4375 0.4375 0.0000  plane waves:   10550

 maximum and minimum number of plane-waves per node :      2678     2619

 maximum number of plane-waves:     10681
 maximum index in each direction: 
   IXMAX=    8   IYMAX=    8   IZMAX=   40
   IXMIN=   -8   IYMIN=   -8   IZMIN=  -40


 real space projection operators:
  total allocation   :       4856.06 KBytes
  max/ min on nodes  :       1216.41       1211.62


 parallel 3D FFT for wavefunctions:
    minimum data exchange during FFTs selected (reduces bandwidth)
 parallel 3D FFT for charge:
    minimum data exchange during FFTs selected (reduces bandwidth)


 total amount of memory used by VASP MPI-rank0    60524. kBytes
=======================================================================

   base      :      30000. kBytes
   nonlr-proj:       2110. kBytes
   fftplans  :       2592. kBytes
   grid      :       4625. kBytes
   one-center:         62. kBytes
   wavefun   :      21135. kBytes
 
     INWAV:  cpu time    0.0000: real time    0.0000
 Broyden mixing: mesh for mixing (old mesh)
   NGX = 17   NGY = 17   NGZ = 81
  (NGX  = 56   NGY  = 56   NGZ  =252)
  gives a total of  23409 points

 initial charge density was supplied:
 charge density of overlapping atoms calculated
 number of electron     160.0000000 magnetization 
 keeping initial charge density in first step


--------------------------------------------------------------------------------------------------------


 Maximum index for non-local projection operator          548
 Maximum index for augmentation-charges          730 (set IRDMAX)


--------------------------------------------------------------------------------------------------------


 First call to EWALD:  gamma=   0.198
 Maximum number of real-space cells 5x 5x 1
 Maximum number of reciprocal cells 2x 2x 7

    FEWALD:  cpu time    0.0012: real time    0.0012


--------------------------------------- Iteration      1(   1)  ---------------------------------------


    POTLOK:  cpu time    0.0212: real time    0.0267
    SETDIJ:  cpu time    0.0025: real time    0.0025
     EDDAV:  cpu time    2.3626: real time    2.3700
       DOS:  cpu time    0.0018: real time    0.0018
    --------------------------------------------
      LOOP:  cpu time    2.3881: real time    2.4010

 eigenvalue-minimisations  :  3864
 total energy-change (2. order) : 0.9769036E+03  (-0.5659239E+04)
 number of electron     160.0000000 magnetization 
 augmentation part      160.0000000 magnetization 

 Free energy of the ion-electron system (eV)
  ---------------------------------------------------
  alpha Z        PSCENC =       350.82459594
  Ewald energy   TEWEN  =     73410.17459361
  -Hartree energ DENC   =    -85645.24584470
  -exchange      EXHF   =         0.00000000
  -V(xc)+E(xc)   XCENC  =        46.80786823
  PAW double counting   =     11171.21661038   -10711.84633960
  entropy T*S    EENTRO =        -0.01201903
  eigenvalues    EBANDS =       661.28990162
  atomic energy  EATOM  =     11693.69420960
  Solvation  Ediel_sol  =         0.00000000
  ---------------------------------------------------
  free energy    TOTEN  =       976.90357605 eV

  energy without entropy =      976.91559508  energy(sigma->0) =      976.90758240


--------------------------------------------------------------------------------------------------------




--------------------------------------- Iteration      1(   2)  ---------------------------------------


     EDDAV:  cpu time    2.7397: real time    2.7469
       DOS:  cpu time    0.0021: real time    0.0021
    --------------------------------------------
      LOOP:  cpu time    2.7417: real time    2.7490

 eigenvalue-minimisations  :  4728
 total energy-change (2. order) :-0.9951886E+03  (-0.9167790E+03)
 number of electron     160.0000000 magnetization 
 augmentation part      160.0000000 magnetization 

 Free energy of the ion-electron system (eV)
  ---------------------------------------------------
  alpha Z        PSCENC =       350.82459594
  Ewald energy   TEWEN  =     73410.17459361
  -Hartree energ DENC   =    -85645.24584470
  -exchange      EXHF   =         0.00000000
  -V(xc)+E(xc)   XCENC  =        46.80786823
  PAW double counting   =     11171.21661038   -10711.84633960
  entropy T*S    EENTRO =         0.00455979
  eigenvalues    EBANDS =      -333.91532031
  atomic energy  EATOM  =     11693.69420960
  Solvation  Ediel_sol  =         0.00000000
  ---------------------------------------------------
  free energy    TOTEN  =       -18.28506706 eV

  energy without entropy =      -18.28962685  energy(sigma->0) =      -18.28658699


--------------------------------------------------------------------------------------------------------




--------------------------------------- Iteration      1(   3)  ---------------------------------------


     EDDAV:  cpu time    2.6907: real time    2.6987
       DOS:  cpu time    0.0023: real time    0.0023
    --------------------------------------------
      LOOP:  cpu time    2.6930: real time    2.7010

 eigenvalue-minimisations  :  4592
 total energy-change (2. order) :-0.7654456E+02  (-0.6890762E+02)
 number of electron     160.0000000 magnetization 
 augmentation part      160.0000000 magnetization 

 Free energy of the ion-electron system (eV)
  ---------------------------------------------------
  alpha Z        PSCENC =       350.82459594
  Ewald energy   TEWEN  =     73410.17459361
  -Hartree energ DENC   =    -85645.24584470
  -exchange      EXHF   =         0.00000000
  -V(xc)+E(xc)   XCENC  =        46.80786823
  PAW double counting   =     11171.21661038   -10711.84633960
  entropy T*S    EENTRO =        -0.02213470
  eigenvalues    EBANDS =      -410.43318151
  atomic energy  EATOM  =     11693.69420960
  Solvation  Ediel_sol  =         0.00000000
  ---------------------------------------------------
  free energy    TOTEN  =       -94.82962274 eV

  energy without entropy =      -94.80748805  energy(sigma->0) =      -94.82224451


--------------------------------------------------------------------------------------------------------




--------------------------------------- Iteration      1(   4)  ---------------------------------------


     EDDAV:  cpu time    2.9545: real time    2.9635
       DOS:  cpu time    0.0023: real time    0.0023
    --------------------------------------------
      LOOP:  cpu time    2.9569: real time    2.9658

 eigenvalue-minimisations  :  5184
 total energy-change (2. order) :-0.3115636E+01  (-0.3013959E+01)
 number of electron     160.0000000 magnetization 
 augmentation part      160.0000000 magnetization 

 Free energy of the ion-electron system (eV)
  ---------------------------------------------------
  alpha Z        PSCENC =       350.82459594
  Ewald energy   TEWEN  =     73410.17459361
  -Hartree energ DENC   =    -85645.24584470
  -exchange      EXHF   =         0.00000000
  -V(xc)+E(xc)   XCENC  =        46.80786823
  PAW double counting   =     11171.21661038   -10711.84633960
  entropy T*S    EENTRO =        -0.02372152
  eigenvalues    EBANDS =      -413.54723050
  atomic energy  EATOM  =     11693.69420960
  Solvation  Ediel_sol  =         0.00000000
  ---------------------------------------------------
  free energy    TOTEN  =       -97.94525855 eV

  energy without entropy =      -97.92153703  energy(sigma->0) =      -97.93735138


--------------------------------------------------------------------------------------------------------




--------------------------------------- Iteration      1(   5)  ---------------------------------------


     EDDAV:  cpu time    2.9005: real time    2.9130
       DOS:  cpu time    0.0023: real time    0.0023
    CHARGE:  cpu time    0.1359: real time    0.1363
    MIXING:  cpu time    0.0010: real time    0.0011
    --------------------------------------------
      LOOP:  cpu time    3.0398: real time    3.0527

 eigenvalue-minimisations  :  5088
 total energy-change (2. order) :-0.8056607E-01  (-0.8025228E-01)
 number of electron     160.0000123 magnetization 
 augmentation part       46.9808176 magnetization 

 Broyden mixing:
  rms(total) = 0.42937E+01    rms(broyden)= 0.42936E+01
  rms(prec ) = 0.43356E+01
  weight for this iteration     100.00

 Free energy of the ion-electron system (eV)
  ---------------------------------------------------
  alpha Z        PSCENC =       350.82459594
  Ewald energy   TEWEN  =     73410.17459361
  -Hartree energ DENC   =    -85645.24584470
  -exchange      EXHF   =         0.00000000
  -V(xc)+E(xc)   XCENC  =        46.80786823
  PAW double counting   =     11171.21661038   -10711.84633960
  entropy T*S    EENTRO =        -0.02399553
  eigenvalues    EBANDS =      -413.62752255
  atomic energy  EATOM  =     11693.69420960
  Solvation  Ediel_sol  =         0.00000000
  ---------------------------------------------------
  free energy    TOTEN  =       -98.02582462 eV

  energy without entropy =      -98.00182909  energy(sigma->0) =      -98.01782611


--------------------------------------------------------------------------------------------------------




--------------------------------------- Iteration      1(   6)  ---------------------------------------


    POTLOK:  cpu time    0.0192: real time    0.0197
    SETDIJ:  cpu time    0.0023: real time    0.0023
     EDDAV:  cpu time    2.6415: real time    2.6512
       DOS:  cpu time    0.0023: real time    0.0023
    CHARGE:  cpu time    0.1350: real time    0.1354
    MIXING:  cpu time    0.0010: real time    0.0010
    --------------------------------------------
      LOOP:  cpu time    2.8014: real time    2.8119

 eigenvalue-minimisations  :  4536
 total energy-change (2. order) : 0.7487773E+00  (-0.2337272E+01)
 number of electron     160.0000106 magnetization 
 augmentation part       49.4655259 magnetization 

 Broyden mixing:
  rms(total) = 0.37777E+01    rms(broyden)= 0.37777E+01
  rms(prec ) = 0.43794E+01
  weight for this iteration     100.00

 eigenvalues of (default mixing * dielectric matrix)
  average eigenvalue GAMMA=   0.8178
  0.8178

 Free energy of the ion-electron system (eV)
  ---------------------------------------------------
  alpha Z        PSCENC =       350.82459594
  Ewald energy   TEWEN  =     73410.17459361
  -Hartree energ DENC   =    -85451.91984228
  -exchange      EXHF   =         0.00000000
  -V(xc)+E(xc)   XCENC  =        42.69908916
  PAW double counting   =     12375.79252115   -11939.95070953
  entropy T*S    EENTRO =         0.00333210
  eigenvalues    EBANDS =      -578.59483704
  atomic energy  EATOM  =     11693.69420960
  Solvation  Ediel_sol  =         0.00000000
  ---------------------------------------------------
  free energy    TOTEN  =       -97.27704729 eV

  energy without entropy =      -97.28037939  energy(sigma->0) =      -97.27815799


--------------------------------------------------------------------------------------------------------




--------------------------------------- Iteration      1(   7)  ---------------------------------------


    POTLOK:  cpu time    0.0183: real time    0.0184
    SETDIJ:  cpu time    0.0023: real time    0.0023
     EDDAV:  cpu time    3.3209: real time    3.3298
       DOS:  cpu time    0.0022: real time    0.0022
    CHARGE:  cpu time    0.1365: real time    0.1368
    MIXING:  cpu time    0.0011: real time    0.0011
    --------------------------------------------
      LOOP:  cpu time    3.4813: real time    3.4907

 eigenvalue-minimisations  :  5992
 total energy-change (2. order) :-0.3881367E+02  (-0.8217187E+01)
 number of electron     160.0000127 magnetization 
 augmentation part       48.1642251 magnetization 

 Broyden mixing:
  rms(total) = 0.52964E+01    rms(broyden)= 0.52963E+01
  rms(prec ) = 0.70841E+01
  weight for this iteration     100.00

 eigenvalues of (default mixing * dielectric matrix)
  average eigenvalue GAMMA=   0.9079
  1.6676  0.1483

 Free energy of the ion-electron system (eV)
  ---------------------------------------------------
  alpha Z        PSCENC =       350.82459594
  Ewald energy   TEWEN  =     73410.17459361
  -Hartree energ DENC   =    -85520.57475184
  -exchange      EXHF   =         0.00000000
  -V(xc)+E(xc)   XCENC  =        41.99490348
  PAW double counting   =     12794.08321448   -12363.34756534
  entropy T*S    EENTRO =        -0.00987778
  eigenvalues    EBANDS =      -542.93003857
  atomic energy  EATOM  =     11693.69420960
  Solvation  Ediel_sol  =         0.00000000
  ---------------------------------------------------
  free energy    TOTEN  =      -136.09071642 eV

  energy without entropy =     -136.08083864  energy(sigma->0) =     -136.08742383


--------------------------------------------------------------------------------------------------------




--------------------------------------- Iteration      1(   8)  ---------------------------------------


    POTLOK:  cpu time    0.0184: real time    0.0190
    SETDIJ:  cpu time    0.0023: real time    0.0024
     EDDAV:  cpu time    3.0619: real time    3.0697
       DOS:  cpu time    0.0023: real time    0.0023
    CHARGE:  cpu time    0.1353: real time    0.1356
    MIXING:  cpu time    0.0009: real time    0.0009
    --------------------------------------------
      LOOP:  cpu time    3.2211: real time    3.2297

 eigenvalue-minimisations  :  5392
 total energy-change (2. order) : 0.1239295E+02  (-0.6023845E+01)
 number of electron     160.0000156 magnetization 
 augmentation part       48.8967352 magnetization 

 Broyden mixing:
  rms(total) = 0.45413E+01    rms(broyden)= 0.45411E+01
  rms(prec ) = 0.52766E+01
  weight for this iteration     100.00

 eigenvalues of (default mixing * dielectric matrix)
  average eigenvalue GAMMA=   0.8531
  2.1542  0.2026  0.2026

 Free energy of the ion-electron system (eV)
  ---------------------------------------------------
  alpha Z        PSCENC =       350.82459594
  Ewald energy   TEWEN  =     73410.17459361
  -Hartree energ DENC   =    -85596.37268088
  -exchange      EXHF   =         0.00000000
  -V(xc)+E(xc)   XCENC  =        40.77676490
  PAW double counting   =     13725.85535252   -13306.69964687
  entropy T*S    EENTRO =        -0.00371648
  eigenvalues    EBANDS =      -441.94724364
  atomic energy  EATOM  =     11693.69420960
  Solvation  Ediel_sol  =         0.00000000
  ---------------------------------------------------
  free energy    TOTEN  =      -123.69777129 eV

  energy without entropy =     -123.69405481  energy(sigma->0) =     -123.69653246


--------------------------------------------------------------------------------------------------------




--------------------------------------- Iteration      1(   9)  ---------------------------------------


    POTLOK:  cpu time    0.0180: real time    0.0182
    SETDIJ:  cpu time    0.0023: real time    0.0023
     EDDAV:  cpu time    3.4718: real time    3.4806
       DOS:  cpu time    0.0023: real time    0.0024
    CHARGE:  cpu time    0.1353: real time    0.1356
    MIXING:  cpu time    0.0009: real time    0.0009
    --------------------------------------------
      LOOP:  cpu time    3.6307: real time    3.6400

 eigenvalue-minimisations  :  6304
 total energy-change (2. order) : 0.1649676E+02  (-0.3938810E+01)
 number of electron     160.0000135 magnetization 
 augmentation part       50.2118110 magnetization 

 Broyden mixing:
  rms(total) = 0.28766E+01    rms(broyden)= 0.28765E+01
  rms(prec ) = 0.40681E+01
  weight for this iteration     100.00

 eigenvalues of (default mixing * dielectric matrix)
  average eigenvalue GAMMA=   0.8308
  2.0453  0.8497  0.2784  0.1498

 Free energy of the ion-electron system (eV)
  ---------------------------------------------------
  alpha Z        PSCENC =       350.82459594
  Ewald energy   TEWEN  =     73410.17459361
  -Hartree energ DENC   =    -85424.03970396
  -exchange      EXHF   =         0.00000000
  -V(xc)+E(xc)   XCENC  =        39.92698813
  PAW double counting   =     14439.64909076   -14029.56111101
  entropy T*S    EENTRO =        -0.01236501
  eigenvalues    EBANDS =      -587.85731129
  atomic energy  EATOM  =     11693.69420960
  Solvation  Ediel_sol  =         0.00000000
  ---------------------------------------------------
  free energy    TOTEN  =      -107.20101324 eV

  energy without entropy =     -107.18864823  energy(sigma->0) =     -107.19689157


--------------------------------------------------------------------------------------------------------




--------------------------------------- Iteration      1(  10)  ---------------------------------------


    POTLOK:  cpu time    0.0179: real time    0.0189
    SETDIJ:  cpu time    0.0023: real time    0.0023
     EDDAV:  cpu time    3.0184: real time    3.0261
       DOS:  cpu time    0.0023: real time    0.0023
    CHARGE:  cpu time    0.1354: real time    0.1358
    MIXING:  cpu time    0.0010: real time    0.0010
    --------------------------------------------
      LOOP:  cpu time    3.1774: real time    3.1865

 eigenvalue-minimisations  :  5360
 total energy-change (2. order) : 0.1096154E+02  (-0.2677970E+01)
 number of electron     160.0000121 magnetization 
 augmentation part       50.3831274 magnetization 

 Broyden mixing:
  rms(total) = 0.18920E+01    rms(broyden)= 0.18919E+01
  rms(prec ) = 0.23894E+01
  weight for this iteration     100.00

 eigenvalues of (default mixing * dielectric matrix)
  average eigenvalue GAMMA=   0.7186
  1.9900  0.9425  0.1542  0.2801  0.2262

 Free energy of the ion-electron system (eV)
  ---------------------------------------------------
  alpha Z        PSCENC =       350.82459594
  Ewald energy   TEWEN  =     73410.17459361
  -Hartree energ DENC   =    -85444.87395219
  -exchange      EXHF   =         0.00000000
  -V(xc)+E(xc)   XCENC  =        40.88525200
  PAW double counting   =     14552.74945647   -14139.97607854
  entropy T*S    EENTRO =        -0.00663622
  eigenvalues    EBANDS =      -559.71091120
  atomic energy  EATOM  =     11693.69420960
  Solvation  Ediel_sol  =         0.00000000
  ---------------------------------------------------
  free energy    TOTEN  =       -96.23947051 eV

  energy without entropy =      -96.23283429  energy(sigma->0) =      -96.23725844


--------------------------------------------------------------------------------------------------------




--------------------------------------- Iteration      1(  11)  ---------------------------------------


    POTLOK:  cpu time    0.0182: real time    0.0184
    SETDIJ:  cpu time    0.0023: real time    0.0023
     EDDAV:  cpu time    3.1186: real time    3.1270
       DOS:  cpu time    0.0024: real time    0.0024
    CHARGE:  cpu time    0.1451: real time    0.1455
    MIXING:  cpu time    0.0012: real time    0.0012
    --------------------------------------------
      LOOP:  cpu time    3.2877: real time    3.2966

 eigenvalue-minimisations  :  5560
 total energy-change (2. order) : 0.4306237E+01  (-0.1370035E+01)
 number of electron     160.0000125 magnetization 
 augmentation part       50.1759605 magnetization 

 Broyden mixing:
  rms(total) = 0.75343E+00    rms(broyden)= 0.75324E+00
  rms(prec ) = 0.82887E+00
  weight for this iteration     100.00

 eigenvalues of (default mixing * dielectric matrix)
  average eigenvalue GAMMA=   0.7004
  2.0475  0.7347  0.7347  0.3139  0.1558  0.2160

 Free energy of the ion-electron system (eV)
  ---------------------------------------------------
  alpha Z        PSCENC =       350.82459594
  Ewald energy   TEWEN  =     73410.17459361
  -Hartree energ DENC   =    -85449.48765381
  -exchange      EXHF   =         0.00000000
  -V(xc)+E(xc)   XCENC  =        40.91185424
  PAW double counting   =     14568.51634162   -14155.22669129
  entropy T*S    EENTRO =        -0.02812403
  eigenvalues    EBANDS =      -551.31235965
  atomic energy  EATOM  =     11693.69420960
  Solvation  Ediel_sol  =         0.00000000
  ---------------------------------------------------
  free energy    TOTEN  =       -91.93323376 eV

  energy without entropy =      -91.90510973  energy(sigma->0) =      -91.92385908


--------------------------------------------------------------------------------------------------------




--------------------------------------- Iteration      1(  12)  ---------------------------------------


    POTLOK:  cpu time    0.0190: real time    0.0192
    SETDIJ:  cpu time    0.0023: real time    0.0023
     EDDAV:  cpu time    2.8334: real time    2.8404
       DOS:  cpu time    0.0024: real time    0.0024
    CHARGE:  cpu time    0.1456: real time    0.1459
    MIXING:  cpu time    0.0014: real time    0.0014
    --------------------------------------------
      LOOP:  cpu time    3.0040: real time    3.0116

 eigenvalue-minimisations  :  4936
 total energy-change (2. order) : 0.1005633E+00  (-0.1419247E+00)
 number of electron     160.0000126 magnetization 
 augmentation part       50.1990480 magnetization 

 Broyden mixing:
  rms(total) = 0.53564E+00    rms(broyden)= 0.53562E+00
  rms(prec ) = 0.55167E+00
  weight for this iteration     100.00

 eigenvalues of (default mixing * dielectric matrix)
  average eigenvalue GAMMA=   0.6516
  2.0582  0.7169  0.7169  0.1551  0.2375  0.3385  0.3385

 Free energy of the ion-electron system (eV)
  ---------------------------------------------------
  alpha Z        PSCENC =       350.82459594
  Ewald energy   TEWEN  =     73410.17459361
  -Hartree energ DENC   =    -85444.42426896
  -exchange      EXHF   =         0.00000000
  -V(xc)+E(xc)   XCENC  =        40.83899981
  PAW double counting   =     14550.45631317   -14137.59654646
  entropy T*S    EENTRO =        -0.01354995
  eigenvalues    EBANDS =      -555.78701722
  atomic energy  EATOM  =     11693.69420960
  Solvation  Ediel_sol  =         0.00000000
  ---------------------------------------------------
  free energy    TOTEN  =       -91.83267045 eV

  energy without entropy =      -91.81912051  energy(sigma->0) =      -91.82815380


--------------------------------------------------------------------------------------------------------




--------------------------------------- Iteration      1(  13)  ---------------------------------------


    POTLOK:  cpu time    0.0190: real time    0.0193
    SETDIJ:  cpu time    0.0023: real time    0.0023
     EDDAV:  cpu time    2.8969: real time    2.9044
       DOS:  cpu time    0.0023: real time    0.0023
    CHARGE:  cpu time    0.1433: real time    0.1437
    MIXING:  cpu time    0.0012: real time    0.0012
    --------------------------------------------
      LOOP:  cpu time    3.0651: real time    3.0732

 eigenvalue-minimisations  :  5088
 total energy-change (2. order) : 0.1523049E-01  (-0.2451675E-01)
 number of electron     160.0000125 magnetization 
 augmentation part       50.1854890 magnetization 

 Broyden mixing:
  rms(total) = 0.42529E+00    rms(broyden)= 0.42528E+00
  rms(prec ) = 0.43865E+00
  weight for this iteration     100.00

 eigenvalues of (default mixing * dielectric matrix)
  average eigenvalue GAMMA=   0.7535
  2.0540  1.1867  1.1867  0.5680  0.1553  0.3286  0.3286  0.2201

 Free energy of the ion-electron system (eV)
  ---------------------------------------------------
  alpha Z        PSCENC =       350.82459594
  Ewald energy   TEWEN  =     73410.17459361
  -Hartree energ DENC   =    -85445.44510070
  -exchange      EXHF   =         0.00000000
  -V(xc)+E(xc)   XCENC  =        40.85762102
  PAW double counting   =     14514.06249120   -14101.08582678
  entropy T*S    EENTRO =        -0.02576112
  eigenvalues    EBANDS =      -554.87426274
  atomic energy  EATOM  =     11693.69420960
  Solvation  Ediel_sol  =         0.00000000
  ---------------------------------------------------
  free energy    TOTEN  =       -91.81743997 eV

  energy without entropy =      -91.79167885  energy(sigma->0) =      -91.80885293


--------------------------------------------------------------------------------------------------------




--------------------------------------- Iteration      1(  14)  ---------------------------------------


    POTLOK:  cpu time    0.0183: real time    0.0185
    SETDIJ:  cpu time    0.0023: real time    0.0023
     EDDAV:  cpu time    2.8597: real time    2.8710
       DOS:  cpu time    0.0024: real time    0.0024
    CHARGE:  cpu time    0.1429: real time    0.1433
    MIXING:  cpu time    0.0013: real time    0.0013
    --------------------------------------------
      LOOP:  cpu time    3.0268: real time    3.0387

 eigenvalue-minimisations  :  4984
 total energy-change (2. order) :-0.8252443E-02  (-0.3467126E-01)
 number of electron     160.0000124 magnetization 
 augmentation part       50.1549917 magnetization 

 Broyden mixing:
  rms(total) = 0.37327E+00    rms(broyden)= 0.37325E+00
  rms(prec ) = 0.47522E+00
  weight for this iteration     100.00

 eigenvalues of (default mixing * dielectric matrix)
  average eigenvalue GAMMA=   0.8150
  2.0829  1.3965  1.3965  1.0170  0.1553  0.3885  0.3885  0.2238  0.2859

 Free energy of the ion-electron system (eV)
  ---------------------------------------------------
  alpha Z        PSCENC =       350.82459594
  Ewald energy   TEWEN  =     73410.17459361
  -Hartree energ DENC   =    -85449.15331607
  -exchange      EXHF   =         0.00000000
  -V(xc)+E(xc)   XCENC  =        40.98745063
  PAW double counting   =     14380.49786790   -13967.00558104
  entropy T*S    EENTRO =        -0.03677316
  eigenvalues    EBANDS =      -551.80873982
  atomic energy  EATOM  =     11693.69420960
  Solvation  Ediel_sol  =         0.00000000
  ---------------------------------------------------
  free energy    TOTEN  =       -91.82569241 eV

  energy without entropy =      -91.78891925  energy(sigma->0) =      -91.81343469


--------------------------------------------------------------------------------------------------------




--------------------------------------- Iteration      1(  15)  ---------------------------------------


    POTLOK:  cpu time    0.0185: real time    0.0240
    SETDIJ:  cpu time    0.0023: real time    0.0023
     EDDAV:  cpu time    2.5027: real time    2.5089
       DOS:  cpu time    0.0024: real time    0.0024
    CHARGE:  cpu time    0.1419: real time    0.1423
    MIXING:  cpu time    0.0014: real time    0.0014
    --------------------------------------------
      LOOP:  cpu time    2.6691: real time    2.6813

 eigenvalue-minimisations  :  4240
 total energy-change (2. order) : 0.6765118E-01  (-0.2622640E-01)
 number of electron     160.0000125 magnetization 
 augmentation part       50.0895713 magnetization 

 Broyden mixing:
  rms(total) = 0.14636E+00    rms(broyden)= 0.14635E+00
  rms(prec ) = 0.16859E+00
  weight for this iteration     100.00

 eigenvalues of (default mixing * dielectric matrix)
  average eigenvalue GAMMA=   0.7789
  1.7467  1.7467  1.2105  1.2105  0.1553  0.4492  0.3766  0.3766  0.2239  0.2929

 Free energy of the ion-electron system (eV)
  ---------------------------------------------------
  alpha Z        PSCENC =       350.82459594
  Ewald energy   TEWEN  =     73410.17459361
  -Hartree energ DENC   =    -85459.46302721
  -exchange      EXHF   =         0.00000000
  -V(xc)+E(xc)   XCENC  =        41.11444956
  PAW double counting   =     14307.34692805   -13893.50655194
  entropy T*S    EENTRO =        -0.02215452
  eigenvalues    EBANDS =      -541.92108433
  atomic energy  EATOM  =     11693.69420960
  Solvation  Ediel_sol  =         0.00000000
  ---------------------------------------------------
  free energy    TOTEN  =       -91.75804123 eV

  energy without entropy =      -91.73588671  energy(sigma->0) =      -91.75065639


--------------------------------------------------------------------------------------------------------




--------------------------------------- Iteration      1(  16)  ---------------------------------------


    POTLOK:  cpu time    0.0183: real time    0.0185
    SETDIJ:  cpu time    0.0023: real time    0.0023
     EDDAV:  cpu time    2.5195: real time    2.5258
       DOS:  cpu time    0.0023: real time    0.0023
    CHARGE:  cpu time    0.1425: real time    0.1429
    MIXING:  cpu time    0.0015: real time    0.0015
    --------------------------------------------
      LOOP:  cpu time    2.6865: real time    2.6933

 eigenvalue-minimisations  :  4256
 total energy-change (2. order) : 0.1853367E-01  (-0.6393763E-02)
 number of electron     160.0000125 magnetization 
 augmentation part       50.0696907 magnetization 

 Broyden mixing:
  rms(total) = 0.83252E-01    rms(broyden)= 0.83238E-01
  rms(prec ) = 0.87935E-01
  weight for this iteration     100.00

 eigenvalues of (default mixing * dielectric matrix)
  average eigenvalue GAMMA=   0.7962
  1.7966  1.7966  1.6511  0.8527  0.8527  0.1553  0.2238  0.4071  0.3668  0.3668
  0.2884

 Free energy of the ion-electron system (eV)
  ---------------------------------------------------
  alpha Z        PSCENC =       350.82459594
  Ewald energy   TEWEN  =     73410.17459361
  -Hartree energ DENC   =    -85461.22141280
  -exchange      EXHF   =         0.00000000
  -V(xc)+E(xc)   XCENC  =        41.14816196
  PAW double counting   =     14296.31832452   -13882.31441709
  entropy T*S    EENTRO =        -0.02443297
  eigenvalues    EBANDS =      -540.33913033
  atomic energy  EATOM  =     11693.69420960
  Solvation  Ediel_sol  =         0.00000000
  ---------------------------------------------------
  free energy    TOTEN  =       -91.73950756 eV

  energy without entropy =      -91.71507459  energy(sigma->0) =      -91.73136324


--------------------------------------------------------------------------------------------------------




--------------------------------------- Iteration      1(  17)  ---------------------------------------


    POTLOK:  cpu time    0.0191: real time    0.0193
    SETDIJ:  cpu time    0.0023: real time    0.0023
     EDDAV:  cpu time    3.0191: real time    3.0266
       DOS:  cpu time    0.0024: real time    0.0024
    CHARGE:  cpu time    0.1419: real time    0.1422
    MIXING:  cpu time    0.0016: real time    0.0016
    --------------------------------------------
      LOOP:  cpu time    3.1863: real time    3.1944

 eigenvalue-minimisations  :  5360
 total energy-change (2. order) : 0.1044921E-02  (-0.1993034E-02)
 number of electron     160.0000124 magnetization 
 augmentation part       50.0734959 magnetization 

 Broyden mixing:
  rms(total) = 0.70316E-01    rms(broyden)= 0.70309E-01
  rms(prec ) = 0.82374E-01
  weight for this iteration     100.00

 eigenvalues of (default mixing * dielectric matrix)
  average eigenvalue GAMMA=   0.8075
  2.1041  1.6705  1.6705  0.9256  0.9256  0.5717  0.1553  0.2237  0.4051  0.4051
  0.3432  0.2896

 Free energy of the ion-electron system (eV)
  ---------------------------------------------------
  alpha Z        PSCENC =       350.82459594
  Ewald energy   TEWEN  =     73410.17459361
  -Hartree energ DENC   =    -85461.82274539
  -exchange      EXHF   =         0.00000000
  -V(xc)+E(xc)   XCENC  =        41.16005823
  PAW double counting   =     14292.25309616   -13878.16252412
  entropy T*S    EENTRO =        -0.02606809
  eigenvalues    EBANDS =      -539.83367859
  atomic energy  EATOM  =     11693.69420960
  Solvation  Ediel_sol  =         0.00000000
  ---------------------------------------------------
  free energy    TOTEN  =       -91.73846264 eV

  energy without entropy =      -91.71239455  energy(sigma->0) =      -91.72977328


--------------------------------------------------------------------------------------------------------




--------------------------------------- Iteration      1(  18)  ---------------------------------------


    POTLOK:  cpu time    0.0186: real time    0.0188
    SETDIJ:  cpu time    0.0023: real time    0.0023
     EDDAV:  cpu time    2.8906: real time    2.8996
       DOS:  cpu time    0.0024: real time    0.0024
    CHARGE:  cpu time    0.1429: real time    0.1434
    MIXING:  cpu time    0.0018: real time    0.0018
    --------------------------------------------
      LOOP:  cpu time    3.0587: real time    3.0683

 eigenvalue-minimisations  :  4952
 total energy-change (2. order) : 0.1517595E-02  (-0.1436252E-02)
 number of electron     160.0000125 magnetization 
 augmentation part       50.0734515 magnetization 

 Broyden mixing:
  rms(total) = 0.42613E-01    rms(broyden)= 0.42610E-01
  rms(prec ) = 0.51746E-01
  weight for this iteration     100.00

 eigenvalues of (default mixing * dielectric matrix)
  average eigenvalue GAMMA=   0.8181
  2.2241  1.7076  1.7076  1.0574  1.0574  0.7410  0.1553  0.4090  0.4090  0.2238
  0.3297  0.3297  0.2837

 Free energy of the ion-electron system (eV)
  ---------------------------------------------------
  alpha Z        PSCENC =       350.82459594
  Ewald energy   TEWEN  =     73410.17459361
  -Hartree energ DENC   =    -85463.50925468
  -exchange      EXHF   =         0.00000000
  -V(xc)+E(xc)   XCENC  =        41.16547369
  PAW double counting   =     14299.87800363   -13885.80118508
  entropy T*S    EENTRO =        -0.02661012
  eigenvalues    EBANDS =      -538.13677165
  atomic energy  EATOM  =     11693.69420960
  Solvation  Ediel_sol  =         0.00000000
  ---------------------------------------------------
  free energy    TOTEN  =       -91.73694505 eV

  energy without entropy =      -91.71033493  energy(sigma->0) =      -91.72807501


--------------------------------------------------------------------------------------------------------




--------------------------------------- Iteration      1(  19)  ---------------------------------------


    POTLOK:  cpu time    0.0194: real time    0.0196
    SETDIJ:  cpu time    0.0023: real time    0.0023
     EDDAV:  cpu time    2.7239: real time    2.7307
       DOS:  cpu time    0.0023: real time    0.0023
    CHARGE:  cpu time    0.1428: real time    0.1431
    MIXING:  cpu time    0.0021: real time    0.0021
    --------------------------------------------
      LOOP:  cpu time    2.8928: real time    2.9002

 eigenvalue-minimisations  :  4688
 total energy-change (2. order) : 0.1551870E-02  (-0.3261239E-03)
 number of electron     160.0000125 magnetization 
 augmentation part       50.0704933 magnetization 

 Broyden mixing:
  rms(total) = 0.25818E-01    rms(broyden)= 0.25816E-01
  rms(prec ) = 0.33136E-01
  weight for this iteration     100.00

 eigenvalues of (default mixing * dielectric matrix)
  average eigenvalue GAMMA=   0.8428
  2.0400  2.0400  1.7081  1.1980  1.1980  0.7064  0.7064  0.1553  0.4321  0.4321
  0.2237  0.2887  0.3349  0.3349

 Free energy of the ion-electron system (eV)
  ---------------------------------------------------
  alpha Z        PSCENC =       350.82459594
  Ewald energy   TEWEN  =     73410.17459361
  -Hartree energ DENC   =    -85465.23139973
  -exchange      EXHF   =         0.00000000
  -V(xc)+E(xc)   XCENC  =        41.17199364
  PAW double counting   =     14308.89839214   -13894.80618024
  entropy T*S    EENTRO =        -0.02560602
  eigenvalues    EBANDS =      -536.43599213
  atomic energy  EATOM  =     11693.69420960
  Solvation  Ediel_sol  =         0.00000000
  ---------------------------------------------------
  free energy    TOTEN  =       -91.73539318 eV

  energy without entropy =      -91.70978715  energy(sigma->0) =      -91.72685784


--------------------------------------------------------------------------------------------------------




--------------------------------------- Iteration      1(  20)  ---------------------------------------


    POTLOK:  cpu time    0.0191: real time    0.0200
    SETDIJ:  cpu time    0.0023: real time    0.0023
     EDDAV:  cpu time    2.8515: real time    2.8607
       DOS:  cpu time    0.0024: real time    0.0024
    CHARGE:  cpu time    0.1421: real time    0.1425
    MIXING:  cpu time    0.0018: real time    0.0018
    --------------------------------------------
      LOOP:  cpu time    3.0192: real time    3.0296

 eigenvalue-minimisations  :  4984
 total energy-change (2. order) : 0.8040146E-03  (-0.1101686E-03)
 number of electron     160.0000125 magnetization 
 augmentation part       50.0644724 magnetization 

 Broyden mixing:
  rms(total) = 0.96498E-02    rms(broyden)= 0.96476E-02
  rms(prec ) = 0.11055E-01
  weight for this iteration     100.00

 eigenvalues of (default mixing * dielectric matrix)
  average eigenvalue GAMMA=   0.8599
  2.1090  2.1090  1.7105  1.2528  1.2528  0.7581  0.7581  0.7762  0.1553  0.4197
  0.4197  0.2237  0.2879  0.3332  0.3332

 Free energy of the ion-electron system (eV)
  ---------------------------------------------------
  alpha Z        PSCENC =       350.82459594
  Ewald energy   TEWEN  =     73410.17459361
  -Hartree energ DENC   =    -85467.32485172
  -exchange      EXHF   =         0.00000000
  -V(xc)+E(xc)   XCENC  =        41.18764614
  PAW double counting   =     14312.58927531   -13898.41002745
  entropy T*S    EENTRO =        -0.02537401
  eigenvalues    EBANDS =      -534.44465658
  atomic energy  EATOM  =     11693.69420960
  Solvation  Ediel_sol  =         0.00000000
  ---------------------------------------------------
  free energy    TOTEN  =       -91.73458916 eV

  energy without entropy =      -91.70921515  energy(sigma->0) =      -91.72613116


--------------------------------------------------------------------------------------------------------




--------------------------------------- Iteration      1(  21)  ---------------------------------------


    POTLOK:  cpu time    0.0189: real time    0.0191
    SETDIJ:  cpu time    0.0023: real time    0.0023
     EDDAV:  cpu time    2.7444: real time    2.7514
       DOS:  cpu time    0.0024: real time    0.0024
    CHARGE:  cpu time    0.1424: real time    0.1427
    MIXING:  cpu time    0.0019: real time    0.0019
    --------------------------------------------
      LOOP:  cpu time    2.9122: real time    2.9198

 eigenvalue-minimisations  :  4760
 total energy-change (2. order) : 0.8758643E-05  (-0.3837874E-04)
 number of electron     160.0000125 magnetization 
 augmentation part       50.0621524 magnetization 

 Broyden mixing:
  rms(total) = 0.12262E-01    rms(broyden)= 0.12262E-01
  rms(prec ) = 0.16858E-01
  weight for this iteration     100.00

 eigenvalues of (default mixing * dielectric matrix)
  average eigenvalue GAMMA=   0.9000
  2.2271  2.2271  2.0774  1.2915  1.2915  0.9088  0.9088  0.6336  0.6336  0.1553
  0.4307  0.4307  0.2237  0.2881  0.3364  0.3364

 Free energy of the ion-electron system (eV)
  ---------------------------------------------------
  alpha Z        PSCENC =       350.82459594
  Ewald energy   TEWEN  =     73410.17459361
  -Hartree energ DENC   =    -85468.59619717
  -exchange      EXHF   =         0.00000000
  -V(xc)+E(xc)   XCENC  =        41.19554304
  PAW double counting   =     14315.75651725   -13901.56129440
  entropy T*S    EENTRO =        -0.02567648
  eigenvalues    EBANDS =      -533.19687180
  atomic energy  EATOM  =     11693.69420960
  Solvation  Ediel_sol  =         0.00000000
  ---------------------------------------------------
  free energy    TOTEN  =       -91.73458041 eV

  energy without entropy =      -91.70890393  energy(sigma->0) =      -91.72602158


--------------------------------------------------------------------------------------------------------




--------------------------------------- Iteration      1(  22)  ---------------------------------------


    POTLOK:  cpu time    0.0187: real time    0.0189
    SETDIJ:  cpu time    0.0023: real time    0.0024
     EDDAV:  cpu time    2.5809: real time    2.5875
       DOS:  cpu time    0.0024: real time    0.0024
    CHARGE:  cpu time    0.1436: real time    0.1439
    MIXING:  cpu time    0.0020: real time    0.0020
    --------------------------------------------
      LOOP:  cpu time    2.7498: real time    2.7569

 eigenvalue-minimisations  :  4368
 total energy-change (2. order) : 0.1019815E-03  (-0.5446854E-04)
 number of electron     160.0000125 magnetization 
 augmentation part       50.0618363 magnetization 

 Broyden mixing:
  rms(total) = 0.58228E-02    rms(broyden)= 0.58214E-02
  rms(prec ) = 0.76062E-02
  weight for this iteration     100.00

 eigenvalues of (default mixing * dielectric matrix)
  average eigenvalue GAMMA=   0.9425
  2.4542  2.4542  2.0691  1.4647  1.4647  0.9828  0.9828  0.7324  0.7324  0.1553
  0.2237  0.4520  0.4520  0.4393  0.2881  0.3371  0.3371

 Free energy of the ion-electron system (eV)
  ---------------------------------------------------
  alpha Z        PSCENC =       350.82459594
  Ewald energy   TEWEN  =     73410.17459361
  -Hartree energ DENC   =    -85469.39079035
  -exchange      EXHF   =         0.00000000
  -V(xc)+E(xc)   XCENC  =        41.19578355
  PAW double counting   =     14318.29126038   -13904.10946472
[...]
     80      -0.3372      2.07015
     81      -0.3196      2.07049
     82      -0.3098      2.06840
     83      -0.2560      2.01194
     84      -0.2399      1.97481
     85      -0.1870      1.76742
     86      -0.1388      1.46073
     87       0.5368     -0.00011
     88       0.7800     -0.00000
     89       0.8559     -0.00000
     90       2.5553     -0.00000
     91       2.8592     -0.00000
     92       2.9163     -0.00000
     93       4.6706     -0.00000
     94       4.7070     -0.00000
     95       5.1018     -0.00000
     96       5.1720     -0.00000

 k-point    19 :       0.4375    0.4375    0.0000
  band No.  band energies     occupation 
      1      -8.1131      2.00000
      2      -7.4443      2.00000
      3      -6.9518      2.00000
      4      -6.5778      2.00000
      5      -6.1132      2.00000
      6      -6.0634      2.00000
      7      -5.9792      2.00000
      8      -5.9071      2.00000
      9      -5.8622      2.00000
     10      -5.8352      2.00000
     11      -5.7963      2.00000
     12      -5.5935      2.00000
     13      -5.5210      2.00000
     14      -5.4300      2.00000
     15      -5.3380      2.00000
     16      -5.2872      2.00000
     17      -5.1824      2.00000
     18      -4.9505      2.00000
     19      -4.9092      2.00000
     20      -4.8011      2.00000
     21      -4.7035      2.00000
     22      -4.6318      2.00000
     23      -4.5841      2.00000
     24      -4.4799      2.00000
     25      -4.4379      2.00000
     26      -4.3735      2.00000
     27      -4.3589      2.00000
     28      -4.1241      2.00000
     29      -4.0276      2.00000
     30      -3.9657      2.00000
     31      -3.9267      2.00000
     32      -3.8471      2.00000
     33      -3.7731      2.00000
     34      -3.6838      2.00000
     35      -3.6061      2.00000
     36      -3.4275      2.00000
     37      -3.3819      2.00000
     38      -3.3031      2.00000
     39      -3.1556      2.00000
     40      -3.1281      2.00000
     41      -3.0896      2.00000
     42      -3.0570      2.00000
     43      -3.0174      2.00000
     44      -2.9530      2.00000
     45      -2.9482      2.00000
     46      -2.9024      2.00000
     47      -2.8557      2.00000
     48      -2.7775      2.00000
     49      -2.7772      2.00000
     50      -2.6685      2.00000
     51      -2.6499      2.00000
     52      -2.6320      2.00000
     53      -2.5731      2.00000
     54      -2.3798      2.00000
     55      -2.2691      2.00000
     56      -2.2416      2.00000
     57      -2.1933      2.00000
     58      -2.0302      2.00000
     59      -1.9621      2.00000
     60      -1.8035      2.00000
     61      -1.7995      2.00000
     62      -1.6288      2.00000
     63      -1.6226      2.00000
     64      -1.5991      2.00000
     65      -1.5260      2.00000
     66      -1.4336      2.00000
     67      -1.3701      2.00000
     68      -1.3583      2.00000
     69      -1.2318      2.00000
     70      -1.2242      2.00000
     71      -1.1889      2.00000
     72      -1.1548      2.00000
     73      -0.9873      2.00000
     74      -0.8483      2.00000
     75      -0.6013      2.00149
     76      -0.5481      2.00476
     77      -0.3869      2.05305
     78      -0.3461      2.06841
     79      -0.2121      1.88313
     80      -0.0555      0.77892
     81      -0.0181      0.48907
     82      -0.0180      0.48834
     83       0.0426      0.14013
     84       0.2010     -0.06245
     85       0.2747     -0.03018
     86       0.3840     -0.00479
     87       1.8809     -0.00000
     88       1.9542     -0.00000
     89       2.0280     -0.00000
     90       2.5295     -0.00000
     91       2.5602     -0.00000
     92       2.6649     -0.00000
     93       3.6130     -0.00000
     94       3.7095     -0.00000
     95       4.0457     -0.00000
     96       5.1411     -0.00000

 k-point    20 :      -0.4375    0.4375    0.0000
  band No.  band energies     occupation 
      1      -7.7099      2.00000
      2      -7.6319      2.00000
      3      -6.6613      2.00000
      4      -6.6076      2.00000
      5      -6.2456      2.00000
      6      -5.9873      2.00000
      7      -5.8680      2.00000
      8      -5.8190      2.00000
      9      -5.7772      2.00000
     10      -5.6706      2.00000
     11      -5.6009      2.00000
     12      -5.5270      2.00000
     13      -5.4761      2.00000
     14      -5.3323      2.00000
     15      -5.1916      2.00000
     16      -5.1419      2.00000
     17      -5.0808      2.00000
     18      -5.0566      2.00000
     19      -4.9301      2.00000
     20      -4.8128      2.00000
     21      -4.7438      2.00000
     22      -4.6564      2.00000
     23      -4.5717      2.00000
     24      -4.5056      2.00000
     25      -4.4902      2.00000
     26      -4.4350      2.00000
     27      -4.3450      2.00000
     28      -4.2957      2.00000
     29      -4.0474      2.00000
     30      -3.9600      2.00000
     31      -3.9072      2.00000
     32      -3.8493      2.00000
     33      -3.7868      2.00000
     34      -3.7447      2.00000
     35      -3.6377      2.00000
     36      -3.5942      2.00000
     37      -3.4581      2.00000
     38      -3.4312      2.00000
     39      -3.3538      2.00000
     40      -3.3328      2.00000
     41      -3.2447      2.00000
     42      -3.1188      2.00000
     43      -3.0723      2.00000
     44      -3.0463      2.00000
     45      -3.0265      2.00000
     46      -2.9709      2.00000
     47      -2.9264      2.00000
     48      -2.9046      2.00000
     49      -2.8581      2.00000
     50      -2.7490      2.00000
     51      -2.6737      2.00000
     52      -2.6092      2.00000
     53      -2.4982      2.00000
     54      -2.3390      2.00000
     55      -2.2529      2.00000
     56      -2.1997      2.00000
     57      -2.1273      2.00000
     58      -2.0967      2.00000
     59      -2.0023      2.00000
     60      -1.8893      2.00000
     61      -1.7178      2.00000
     62      -1.7097      2.00000
     63      -1.6188      2.00000
     64      -1.5913      2.00000
     65      -1.4510      2.00000
     66      -1.4121      2.00000
     67      -1.3560      2.00000
     68      -1.2666      2.00000
     69      -1.2152      2.00000
     70      -1.1585      2.00000
     71      -1.1007      2.00000
     72      -1.0193      2.00000
     73      -0.9959      2.00000
     74      -0.8522      2.00000
     75      -0.6542      2.00040
     76      -0.6083      2.00126
     77      -0.4658      2.02056
     78      -0.3476      2.06804
     79      -0.2892      2.05699
     80      -0.1652      1.64139
     81      -0.1382      1.45609
     82      -0.1082      1.22067
     83       0.0725      0.03493
     84       0.1311     -0.06125
     85       0.2761     -0.02964
     86       0.3688     -0.00649
     87       0.9554     -0.00000
     88       1.3061     -0.00000
     89       2.2570     -0.00000
     90       2.3305     -0.00000
     91       2.3613     -0.00000
     92       3.0746     -0.00000
     93       3.9846     -0.00000
     94       4.2022     -0.00000
     95       4.7085     -0.00000
     96       4.7806     -0.00000


--------------------------------------------------------------------------------------------------------


 soft charge-density along one line, spin component           1
         0         1         2         3         4         5         6         7         8         9
 total charge-density along one line
 
 pseudopotential strength for first ion, spin component:           1
 -7.833   0.000   0.000  -0.008   0.000  -7.984   0.000   0.000
  0.000  -7.817  -0.000   0.000  -0.008   0.000  -7.969  -0.000
  0.000  -0.000  -7.831  -0.000   0.000   0.000  -0.000  -7.982
 -0.008   0.000  -0.000  -7.817   0.000  -0.008   0.000  -0.000
  0.000  -0.008   0.000   0.000  -7.833   0.000  -0.008   0.000
 -7.984   0.000   0.000  -0.008   0.000  -8.119   0.000   0.000
  0.000  -7.969  -0.000   0.000  -0.008   0.000  -8.104  -0.000
  0.000  -0.000  -7.982  -0.000   0.000   0.000  -0.000  -8.117
 -0.008   0.000  -0.000  -7.969   0.000  -0.008   0.000  -0.000
  0.000  -0.008   0.000   0.000  -7.984   0.000  -0.008   0.000
 -0.000  -0.000  -0.002  -0.000  -0.000  -0.000  -0.000  -0.002
 -0.000  -0.000  -0.003  -0.000  -0.000  -0.000  -0.000  -0.003
 -0.000  -0.002   0.000   0.000  -0.000  -0.000  -0.002   0.000
  0.000  -0.000  -0.003  -0.000   0.000   0.000  -0.000  -0.003
 -0.000   0.000   0.000  -0.002  -0.000  -0.000   0.000   0.000
 -0.000  -0.003   0.000   0.000  -0.000  -0.000  -0.003   0.000
  0.000  -0.000  -0.004  -0.000   0.000   0.000  -0.000  -0.004
 -0.000   0.000   0.000  -0.003  -0.000  -0.000   0.000   0.000
 total augmentation occupancy for first ion, spin component:           1
  6.205   0.000   0.000   0.128   0.000  -4.191   0.000   0.000  -0.249   0.000   0.000   0.000   0.000   0.000  -0.003   0.000
  0.000   6.053  -0.000   0.000   0.128   0.000  -3.871   0.000   0.000  -0.248   0.000  -0.000  -0.006   0.000   0.000  -0.002
  0.000  -0.000   6.240   0.000  -0.000   0.000   0.000  -4.294   0.000   0.000   0.105  -0.026  -0.000   0.015   0.000   0.000
  0.128   0.000   0.000   6.053   0.000  -0.248   0.000   0.000  -3.871   0.000   0.000   0.000   0.000   0.000  -0.006   0.000
  0.000   0.128  -0.000   0.000   6.205   0.000  -0.249   0.000   0.000  -4.191   0.000  -0.000  -0.003   0.000   0.000  -0.000
 -4.191   0.000   0.000  -0.248   0.000   4.089   0.000   0.000   0.340   0.000   0.000   0.000  -0.000   0.000   0.000   0.000
  0.000  -3.871   0.000   0.000  -0.249   0.000   3.632  -0.000   0.000   0.340   0.000  -0.000  -0.004  -0.000   0.000   0.001
  0.000   0.000  -4.294   0.000   0.000   0.000  -0.000   4.241   0.000  -0.000  -0.115   0.029  -0.000  -0.019   0.000  -0.000
 -0.249   0.000   0.000  -3.871   0.000   0.340   0.000   0.000   3.632   0.000   0.000   0.000   0.000   0.000  -0.004   0.000
  0.000  -0.248   0.000   0.000  -4.191   0.000   0.340  -0.000   0.000   4.089  -0.000   0.000   0.000   0.000   0.000   0.000
  0.000   0.000   0.105   0.000   0.000   0.000   0.000  -0.115   0.000  -0.000   3.019  -0.821   0.000  -0.022   0.000   0.000
  0.000   0.000  -0.026   0.000  -0.000   0.000   0.000   0.029   0.000   0.000  -0.821   0.249  -0.000   0.006   0.000   0.000
  0.000  -0.006   0.000   0.000  -0.003   0.000  -0.004  -0.000   0.000   0.000   0.000  -0.000   0.250  -0.000   0.000  -0.008
  0.000   0.000   0.015   0.000  -0.000   0.000  -0.000  -0.019   0.000   0.000  -0.022   0.006   0.000   0.238   0.000  -0.000
 -0.003   0.000   0.000  -0.006   0.000   0.000   0.000   0.000  -0.004   0.000   0.000   0.000   0.000   0.000   0.250   0.000
  0.000  -0.002   0.000   0.000  -0.000   0.000   0.001  -0.000   0.000   0.000   0.000  -0.000  -0.008   0.000   0.000   0.000
  0.000  -0.000  -0.003   0.000   0.000   0.000   0.000   0.001   0.000  -0.000   0.001  -0.000  -0.000  -0.008   0.000   0.000
 -0.000   0.000   0.000  -0.002   0.000   0.000   0.000   0.000   0.001   0.000   0.000   0.000   0.000   0.000  -0.008   0.000


------------------------ aborting loop because EDIFF is reached ----------------------------------------



 DIPCOR: dipole corrections for dipol
 direction  3 min pos   253,
 dipolmoment           0.000000      0.000000      0.011666 electrons x Angstroem
 Tr[quadrupol]      -942.787338

 energy correction for charged system         0.000000 eV
 dipol+quadrupol energy correction            0.000017 eV
 added-field ion interaction          0.000000 eV  (added to PSCEN)

 
  *************** adding dipol energy to TOTEN NOW **************** 
    CHARGE:  cpu time    0.1356: real time    0.1360
    FORLOC:  cpu time    0.0042: real time    0.0042
    FORNL :  cpu time    0.5398: real time    0.5417
    STRESS:  cpu time    1.6294: real time    1.6334
    FORCOR:  cpu time    0.0231: real time    0.0232
    FORHAR:  cpu time    0.0083: real time    0.0083
    MIXING:  cpu time    0.0029: real time    0.0029
    OFIELD:  cpu time    0.0000: real time    0.0000

  FORCE on cell =-STRESS in cart. coord.  units (eV):
  Direction    XX          YY          ZZ          XY          YZ          ZX
  --------------------------------------------------------------------------------------
  Alpha Z   350.82460   350.82460   350.82460
  Ewald   82328.25935 82328.25935-91246.36008    -0.00000    -0.00000    -0.00000
  Hartree 84779.63998 84779.63998-84086.31508    -0.00000     0.00000     0.00000
  E(xc)    -710.36754  -710.36755  -715.20140     0.00001    -0.00000    -0.00000
  Local  ************************172436.18699     0.00102    -0.00004    -0.00006
  n-local   100.59857    27.12238    46.26762   -20.41163    -4.49629     2.38702
  augment   833.90408   833.90496   862.10695    -0.00076     0.00000     0.00001
  Kinetic  2294.74198  2271.06041  2356.06977    -5.58032    -4.83293     3.53982
  Fock        0.00000     0.00000     0.00000     0.00000     0.00000     0.00000
  -------------------------------------------------------------------------------------
  Total      -7.85590    -7.85590     3.57937     0.00000    -0.00000     0.00000
  in kB     -17.65254   -17.65254     8.04300     0.00000    -0.00000     0.00000
  external pressure =       -9.09 kB  Pullay stress =        0.00 kB


 VOLUME and BASIS-vectors are now :
 -----------------------------------------------------------------------------
  energy-cutoff  :      350.00
  volume of cell :      713.02
      direct lattice vectors                 reciprocal lattice vectors
     5.543717165  0.000000000  0.000000000     0.180384383 -0.104144972  0.000000000
     2.771858582  4.800999896  0.000000000     0.000000000  0.208289944  0.000000000
     0.000000000  0.000000000 26.789639166     0.000000000  0.000000000  0.037327864

  length of vectors
     5.543717165  5.543717165 26.789639166     0.208289944  0.208289944  0.037327864


 FORCES acting on ions
    electron-ion (+dipol)            ewald-force                    non-local-force                 convergence-correction
 -----------------------------------------------------------------------------------------------
   -.922E-06 -.533E-06 -.964E+03   -.311E-11 -.196E-11 0.964E+03   0.239E-17 0.434E-18 0.381E+00   -.449E-10 -.259E-10 0.308E-01
   -.236E-06 -.136E-06 0.243E+04   -.909E-12 -.594E-12 -.243E+04   -.651E-18 -.195E-17 -.164E+00   -.166E-10 -.956E-11 0.912E-02
   0.128E-05 0.279E+00 0.270E+04   -.106E-11 -.298E+00 -.270E+04   0.867E-18 0.672E-01 -.101E+01   -.112E-10 -.269E-03 0.963E-02
   -.242E+00 -.140E+00 0.270E+04   0.258E+00 0.149E+00 -.270E+04   -.582E-01 -.336E-01 -.101E+01   0.233E-03 0.134E-03 0.963E-02
   0.242E+00 -.140E+00 0.270E+04   -.258E+00 0.149E+00 -.270E+04   0.582E-01 -.336E-01 -.101E+01   -.233E-03 0.134E-03 0.963E-02
   -.979E+01 0.565E+01 0.943E+03   0.102E+02 -.586E+01 -.944E+03   -.103E+00 0.597E-01 0.172E+00   -.706E-03 0.407E-03 0.329E-01
   0.979E+01 0.565E+01 0.943E+03   -.102E+02 -.586E+01 -.944E+03   0.103E+00 0.597E-01 0.172E+00   0.706E-03 0.407E-03 0.329E-01
   0.610E-06 0.352E-06 0.933E+03   0.314E-11 0.197E-11 -.933E+03   -.585E-17 -.195E-17 0.838E-01   -.134E-09 -.774E-10 0.324E-01
   0.387E-06 -.113E+02 0.943E+03   0.277E-11 0.117E+02 -.944E+03   -.104E-16 -.119E+00 0.172E+00   -.796E-09 -.815E-03 0.329E-01
   -.828E-06 0.276E+00 -.876E+03   -.286E-11 -.298E+00 0.876E+03   -.304E-17 0.403E-01 0.401E+00   -.258E-09 0.240E-03 0.276E-01
   0.239E+00 -.138E+00 -.876E+03   -.258E+00 0.149E+00 0.876E+03   0.349E-01 -.202E-01 0.401E+00   0.208E-03 -.120E-03 0.276E-01
   -.239E+00 -.138E+00 -.876E+03   0.258E+00 0.149E+00 0.876E+03   -.349E-01 -.202E-01 0.401E+00   -.208E-03 -.120E-03 0.276E-01
   -.107E-05 0.528E+01 -.267E+04   0.644E-12 -.546E+01 0.267E+04   -.173E-17 0.910E-01 0.982E+00   -.250E-09 -.406E-03 0.419E-02
   -.111E-05 -.638E-06 -.267E+04   0.108E-11 0.656E-12 0.267E+04   -.260E-17 0.867E-18 0.850E+00   0.250E-11 0.141E-11 0.386E-02
   -.458E+01 -.264E+01 -.267E+04   0.473E+01 0.273E+01 0.267E+04   -.788E-01 -.455E-01 0.982E+00   0.352E-03 0.203E-03 0.419E-02
   0.458E+01 -.264E+01 -.267E+04   -.473E+01 0.273E+01 0.267E+04   0.788E-01 -.455E-01 0.982E+00   -.352E-03 0.203E-03 0.419E-02
 -----------------------------------------------------------------------------------------------
   -.180E-05 -.104E-05 -.308E+01   -.560E-13 -.475E-13 -.182E-11   -.139E-16 0.000E+00 0.279E+01   -.415E-09 -.240E-09 0.299E+00
 
 
 POSITION                                       TOTAL-FORCE (eV/Angst)
 -----------------------------------------------------------------------------------
      5.54372      1.60033     14.56863        -0.000000     -0.000000      0.063072
      2.77186      0.00000     10.00000        -0.000000     -0.000000      0.513193
      0.00000      0.00000     10.00000         0.000000      0.048043     -0.529389
      1.38593      2.40050     10.00000        -0.041607     -0.024022     -0.529389
      4.15779      2.40050     10.00000         0.041607     -0.024022     -0.529389
      1.38593      0.80017     12.26321         0.259089     -0.149585     -0.044935
      4.15779      0.80017     12.26321        -0.259089     -0.149585     -0.044935
      2.77186      3.20067     12.26321        -0.000000     -0.000000      0.567639
      5.54372      3.20067     12.26321         0.000000      0.299170     -0.044935
      2.77186      1.60033     14.56863        -0.000000      0.018470      0.066977
      6.92965      4.00083     14.56863         0.015995     -0.009235      0.066977
      4.15779      4.00083     14.56863        -0.015995     -0.009235      0.066977
      0.00000      0.00000     16.90767         0.000000     -0.088489      0.153865
      2.77186      0.00000     16.90767        -0.000000     -0.000000     -0.083459
      1.38593      2.40050     16.90767         0.076634      0.044245      0.153865
      4.15779      2.40050     16.90767        -0.076634      0.044245      0.153865
 -----------------------------------------------------------------------------------
    total drift:                               -0.000002     -0.000001      0.012970


--------------------------------------------------------------------------------------------------------



  FREE ENERGIE OF THE ION-ELECTRON SYSTEM (eV)
  ---------------------------------------------------
  free  energy   TOTEN  =       -91.73467768 eV

  energy  without entropy=      -91.70938514  energy(sigma->0) =      -91.72624683
 


--------------------------------------------------------------------------------------------------------


    POTLOK:  cpu time    0.0214: real time    0.0214


--------------------------------------------------------------------------------------------------------


     LOOP+:  cpu time   85.0048: real time   85.2762
    4ORBIT:  cpu time    0.0000: real time    0.0000

 total amount of memory used by VASP MPI-rank0    60524. kBytes
=======================================================================

   base      :      30000. kBytes
   nonlr-proj:       2110. kBytes
   fftplans  :       2592. kBytes
   grid      :       4625. kBytes
   one-center:         62. kBytes
   wavefun   :      21135. kBytes
 
  
  
 General timing and accounting informations for this job:
 ========================================================
  
                  Total CPU time used (sec):       86.726
                            User time (sec):       86.367
                          System time (sec):        0.358
                         Elapsed time (sec):       87.208
  
                   Maximum memory used (kb):       92296.
                   Average memory used (kb):           0.
  
                          Minor page faults:        43633
                          Major page faults:            0
                 Voluntary context switches:          530
