       N       E                     dE             d eps       ncg     rms          rms(c)
DAV:   1     0.102516076184E+04    0.10252E+04   -0.58281E+04 19288   0.103E+03
DAV:   2    -0.293278091161E+02   -0.10545E+04   -0.98032E+03 23956   0.259E+02
DAV:   3    -0.121155626072E+03   -0.91828E+02   -0.84893E+02 22876   0.758E+01
DAV:   4    -0.125580323866E+03   -0.44247E+01   -0.42122E+01 25696   0.169E+01
DAV:   5    -0.125722619871E+03   -0.14230E+00   -0.14094E+00 26824   0.297E+00    0.428E+01
DAV:   6    -0.118822885198E+03    0.68997E+01   -0.31095E+01 22236   0.211E+01    0.318E+01
DAV:   7    -0.144353344139E+03   -0.25530E+02   -0.11600E+02 22756   0.609E+01    0.449E+01
DAV:   8    -0.126284808823E+03    0.18069E+02   -0.47979E+01 23648   0.355E+01    0.294E+01
DAV:   9    -0.127885978302E+03   -0.16012E+01   -0.63663E+01 28252   0.393E+01    0.274E+01
DAV:  10    -0.122129819098E+03    0.57562E+01   -0.44393E+01 26756   0.370E+01    0.235E+01
DAV:  11    -0.116831436615E+03    0.52984E+01   -0.10281E+01 28432   0.188E+01    0.106E+01
DAV:  12    -0.116849989617E+03   -0.18553E-01   -0.63482E+00 28300   0.121E+01    0.103E+01
DAV:  13    -0.116103584626E+03    0.74640E+00   -0.24877E+00 27632   0.732E+00    0.488E+00
DAV:  14    -0.115944009679E+03    0.15957E+00   -0.11093E+00 21576   0.477E+00    0.358E+00
DAV:  15    -0.115939438792E+03    0.45709E-02   -0.10645E-01 22672   0.128E+00    0.299E+00
DAV:  16    -0.115927120078E+03    0.12319E-01   -0.11084E-02 21928   0.472E-01    0.250E+00
DAV:  17    -0.115899703822E+03    0.27416E-01   -0.84957E-02 23380   0.136E+00    0.966E-01
DAV:  18    -0.115892892846E+03    0.68110E-02   -0.43640E-02 21360   0.913E-01    0.555E-01
DAV:  19    -0.115891599728E+03    0.12931E-02   -0.78866E-03 21552   0.355E-01    0.429E-01
DAV:  20    -0.115890664989E+03    0.93474E-03   -0.38182E-03 23440   0.284E-01    0.317E-01
DAV:  21    -0.115890938591E+03   -0.27360E-03   -0.27828E-03 25624   0.215E-01    0.338E-01
DAV:  22    -0.115890080579E+03    0.85801E-03   -0.35316E-03 25876   0.225E-01    0.139E-01
DAV:  23    -0.115890060505E+03    0.20074E-04   -0.41507E-04 23752   0.855E-02    0.127E-01
DAV:  24    -0.115890008718E+03    0.51787E-04   -0.23020E-04 16412   0.586E-02    0.631E-02
DAV:  25    -0.115890152821E+03   -0.14410E-03   -0.19267E-04 21264   0.607E-02    0.265E-02
DAV:  26    -0.115890224144E+03   -0.71323E-04   -0.84662E-05 19244   0.331E-02    0.267E-02
DAV:  27    -0.115890327328E+03   -0.10318E-03   -0.42653E-05 14596   0.269E-02    0.339E-02
DAV:  28    -0.115890462153E+03   -0.13483E-03   -0.23589E-05 14180   0.182E-02    0.277E-02
DAV:  29    -0.115890555302E+03   -0.93149E-04   -0.12692E-05 12332   0.151E-02    0.172E-02
DAV:  30    -0.115890639757E+03   -0.84455E-04   -0.19609E-05 12192   0.171E-02    0.161E-02
DAV:  31    -0.115890704623E+03   -0.64866E-04   -0.51674E-06 11636   0.874E-03    0.145E-02
DAV:  32    -0.115890749106E+03   -0.44483E-04   -0.20923E-06 11664   0.553E-03    0.142E-02
DAV:  33    -0.115890784168E+03   -0.35062E-04   -0.25279E-06 11620   0.588E-03    0.883E-03
DAV:  34    -0.115890802680E+03   -0.18512E-04   -0.15670E-06 11428   0.408E-03    0.500E-03
DAV:  35    -0.115890807226E+03   -0.45463E-05   -0.39097E-07 10516   0.234E-03
   1 F= -.11588684E+03 E0= -.11587381E+03  d E =-.390704E-01
