       N       E                     dE             d eps       ncg     rms          rms(c)
DAV:   1     0.101939412730E+04    0.10194E+04   -0.58218E+04 19272   0.103E+03
DAV:   2    -0.297708671484E+02   -0.10492E+04   -0.97547E+03 23976   0.258E+02
DAV:   3    -0.121331362365E+03   -0.91560E+02   -0.84703E+02 22976   0.756E+01
DAV:   4    -0.125688153645E+03   -0.43568E+01   -0.41559E+01 25752   0.167E+01
DAV:   5    -0.125829324132E+03   -0.14117E+00   -0.13997E+00 27156   0.295E+00    0.425E+01
DAV:   6    -0.118883398871E+03    0.69459E+01   -0.29568E+01 21988   0.204E+01    0.310E+01
DAV:   7    -0.142159168261E+03   -0.23276E+02   -0.94426E+01 24732   0.549E+01    0.441E+01
DAV:   8    -0.119340915432E+03    0.22818E+02   -0.38996E+01 26024   0.324E+01    0.168E+01
DAV:   9    -0.120019831209E+03   -0.67892E+00   -0.34461E+01 21416   0.273E+01    0.213E+01
DAV:  10    -0.125011507706E+03   -0.49917E+01   -0.25946E+01 26520   0.282E+01    0.283E+01
DAV:  11    -0.118268797547E+03    0.67427E+01   -0.26875E+01 31948   0.288E+01    0.147E+01
DAV:  12    -0.116729391801E+03    0.15394E+01   -0.79007E+00 27384   0.117E+01    0.826E+00
DAV:  13    -0.116169781253E+03    0.55961E+00   -0.20841E+00 28340   0.633E+00    0.432E+00
DAV:  14    -0.116088179914E+03    0.81601E-01   -0.12720E-01 22112   0.154E+00    0.312E+00
DAV:  15    -0.116056196622E+03    0.31983E-01   -0.10553E-01 23504   0.151E+00    0.241E+00
DAV:  16    -0.116069684485E+03   -0.13488E-01   -0.10552E-01 27132   0.151E+00    0.234E+00
DAV:  17    -0.116051493306E+03    0.18191E-01   -0.22161E-02 24016   0.677E-01    0.179E+00
DAV:  18    -0.116025001431E+03    0.26492E-01   -0.80174E-02 25676   0.115E+00    0.842E-01
DAV:  19    -0.116022806686E+03    0.21947E-02   -0.83935E-03 21084   0.380E-01    0.650E-01
DAV:  20    -0.116021185541E+03    0.16211E-02   -0.37745E-03 24464   0.267E-01    0.448E-01
DAV:  21    -0.116021059407E+03    0.12613E-03   -0.13114E-03 25832   0.155E-01    0.367E-01
DAV:  22    -0.116020994367E+03    0.65040E-04   -0.81294E-04 20800   0.122E-01    0.274E-01
DAV:  23    -0.116020625552E+03    0.36882E-03   -0.11165E-03 21460   0.150E-01    0.121E-01
DAV:  24    -0.116020662031E+03   -0.36480E-04   -0.16975E-04 21060   0.532E-02    0.881E-02
DAV:  25    -0.116020718273E+03   -0.56242E-04   -0.88083E-05 17748   0.403E-02    0.597E-02
DAV:  26    -0.116020823564E+03   -0.10529E-03   -0.89191E-05 17520   0.412E-02    0.416E-02
DAV:  27    -0.116020879598E+03   -0.56035E-04   -0.26287E-05 12652   0.233E-02    0.365E-02
DAV:  28    -0.116020988082E+03   -0.10848E-03   -0.27302E-05 12760   0.244E-02    0.206E-02
DAV:  29    -0.116021087610E+03   -0.99528E-04   -0.10075E-05 12460   0.128E-02    0.204E-02
DAV:  30    -0.116021184710E+03   -0.97100E-04   -0.62717E-06 11652   0.103E-02    0.126E-02
DAV:  31    -0.116021288543E+03   -0.10383E-03   -0.95593E-06 11992   0.115E-02    0.857E-03
DAV:  32    -0.116021370889E+03   -0.82346E-04   -0.41723E-06 11760   0.786E-03    0.825E-03
DAV:  33    -0.116021406558E+03   -0.35669E-04   -0.25208E-06 11368   0.580E-03    0.553E-03
DAV:  34    -0.116021419774E+03   -0.13216E-04   -0.15667E-06 10932   0.451E-03    0.213E-03
DAV:  35    -0.116021426555E+03   -0.67810E-05   -0.44899E-07 10324   0.258E-03
   1 F= -.11602057E+03 E0= -.11600861E+03  d E =-.358991E-01
