       N       E                     dE             d eps       ncg     rms          rms(c)
DAV:   1     0.101972340706E+04    0.10197E+04   -0.58214E+04 19264   0.103E+03
DAV:   2    -0.292493897468E+02   -0.10490E+04   -0.97441E+03 23880   0.258E+02
DAV:   3    -0.121265173951E+03   -0.92016E+02   -0.85118E+02 23040   0.758E+01
DAV:   4    -0.125690792144E+03   -0.44256E+01   -0.42111E+01 25664   0.168E+01
DAV:   5    -0.125835198093E+03   -0.14441E+00   -0.14314E+00 27136   0.298E+00    0.425E+01
DAV:   6    -0.118936498053E+03    0.68987E+01   -0.29735E+01 21896   0.204E+01    0.312E+01
DAV:   7    -0.142287127616E+03   -0.23351E+02   -0.97784E+01 24348   0.553E+01    0.442E+01
DAV:   8    -0.119868137678E+03    0.22419E+02   -0.39298E+01 25668   0.322E+01    0.180E+01
DAV:   9    -0.121783116825E+03   -0.19150E+01   -0.43597E+01 21712   0.295E+01    0.234E+01
DAV:  10    -0.125708621145E+03   -0.39255E+01   -0.25940E+01 27240   0.323E+01    0.288E+01
DAV:  11    -0.118312619023E+03    0.73960E+01   -0.27784E+01 32636   0.292E+01    0.149E+01
DAV:  12    -0.116467191125E+03    0.18454E+01   -0.83686E+00 27124   0.130E+01    0.680E+00
DAV:  13    -0.116094675056E+03    0.37252E+00   -0.11600E+00 28324   0.542E+00    0.359E+00
DAV:  14    -0.116053064925E+03    0.41610E-01   -0.78934E-02 24260   0.117E+00    0.275E+00
DAV:  15    -0.116053963242E+03   -0.89832E-03   -0.21292E-01 24576   0.174E+00    0.231E+00
DAV:  16    -0.116061133731E+03   -0.71705E-02   -0.89905E-02 21444   0.143E+00    0.203E+00
DAV:  17    -0.116029380224E+03    0.31754E-01   -0.52000E-02 21056   0.117E+00    0.991E-01
DAV:  18    -0.116026156542E+03    0.32237E-02   -0.42063E-02 25408   0.767E-01    0.709E-01
DAV:  19    -0.116024690313E+03    0.14662E-02   -0.61614E-03 23144   0.331E-01    0.464E-01
DAV:  20    -0.116024540391E+03    0.14992E-03   -0.39762E-03 28064   0.240E-01    0.425E-01
DAV:  21    -0.116024466118E+03    0.74273E-04   -0.12429E-03 20756   0.140E-01    0.334E-01
DAV:  22    -0.116024140757E+03    0.32536E-03   -0.89742E-04 21236   0.117E-01    0.213E-01
DAV:  23    -0.116023955028E+03    0.18573E-03   -0.61956E-04 21992   0.106E-01    0.100E-01
DAV:  24    -0.116024028365E+03   -0.73337E-04   -0.22581E-04 21772   0.593E-02    0.490E-02
DAV:  25    -0.116024095459E+03   -0.67095E-04   -0.66070E-05 15280   0.370E-02    0.347E-02
DAV:  26    -0.116024182832E+03   -0.87373E-04   -0.35939E-05 12696   0.263E-02    0.304E-02
DAV:  27    -0.116024237843E+03   -0.55010E-04   -0.24764E-05 12088   0.186E-02    0.204E-02
DAV:  28    -0.116024472056E+03   -0.23421E-03   -0.36995E-05 13992   0.234E-02    0.315E-02
DAV:  29    -0.116024544232E+03   -0.72176E-04   -0.13252E-05 12532   0.139E-02    0.189E-02
DAV:  30    -0.116024648494E+03   -0.10426E-03   -0.98988E-06 11644   0.120E-02    0.103E-02
DAV:  31    -0.116024722462E+03   -0.73969E-04   -0.75038E-06 11644   0.970E-03    0.104E-02
DAV:  32    -0.116024770024E+03   -0.47562E-04   -0.29728E-06 11412   0.627E-03    0.903E-03
DAV:  33    -0.116024785597E+03   -0.15573E-04   -0.13275E-06 10756   0.435E-03    0.612E-03
DAV:  34    -0.116024797732E+03   -0.12135E-04   -0.92867E-07 10972   0.342E-03    0.375E-03
DAV:  35    -0.116024803055E+03   -0.53223E-05   -0.61962E-07 10104   0.293E-03
   1 F= -.11602393E+03 E0= -.11601081E+03  d E =-.393588E-01
