       N       E                     dE             d eps       ncg     rms          rms(c)
DAV:   1     0.116605470155E+04    0.11661E+04   -0.79799E+04 13512   0.105E+03
DAV:   2    -0.494223830775E+02   -0.12155E+04   -0.11423E+04 15200   0.272E+02
DAV:   3    -0.120606903803E+03   -0.71185E+02   -0.65143E+02 15160   0.608E+01
DAV:   4    -0.122873212662E+03   -0.22663E+01   -0.22264E+01 15576   0.113E+01
DAV:   5    -0.122959698027E+03   -0.86485E-01   -0.86429E-01 15856   0.210E+00    0.309E+01
DAV:   6    -0.122313228788E+03    0.64647E+00   -0.35738E+01 14920   0.251E+01    0.262E+01
DAV:   7    -0.171775437280E+03   -0.49462E+02   -0.56463E+01 16952   0.865E+01    0.570E+01
DAV:   8    -0.133169263077E+03    0.38606E+02   -0.66147E+01 17032   0.406E+01    0.336E+01
DAV:   9    -0.124233026733E+03    0.89362E+01   -0.39297E+01 14888   0.287E+01    0.237E+01
DAV:  10    -0.117464581841E+03    0.67684E+01   -0.13621E+01 14424   0.270E+01    0.982E+00
DAV:  11    -0.117776955579E+03   -0.31237E+00   -0.83321E+00 14344   0.180E+01    0.124E+01
DAV:  12    -0.116514355602E+03    0.12626E+01   -0.22856E+00 14056   0.105E+01    0.423E+00
DAV:  13    -0.116655792075E+03   -0.14144E+00   -0.15400E+00 14280   0.677E+00    0.531E+00
DAV:  14    -0.116543350494E+03    0.11244E+00   -0.38082E-01 14120   0.348E+00    0.409E+00
DAV:  15    -0.116458099754E+03    0.85251E-01   -0.88326E-02 14200   0.185E+00    0.288E+00
DAV:  16    -0.116434799605E+03    0.23300E-01   -0.16251E-01 14280   0.198E+00    0.180E+00
DAV:  17    -0.116413372063E+03    0.21428E-01   -0.55608E-02 13584   0.136E+00    0.104E+00
DAV:  18    -0.116405761606E+03    0.76105E-02   -0.18292E-02 13952   0.743E-01    0.709E-01
DAV:  19    -0.116402318638E+03    0.34430E-02   -0.85518E-03 14160   0.533E-01    0.321E-01
DAV:  20    -0.116401787924E+03    0.53071E-03   -0.26512E-03 14416   0.275E-01    0.175E-01
DAV:  21    -0.116401682937E+03    0.10499E-03   -0.13092E-03 13944   0.181E-01    0.103E-01
DAV:  22    -0.116401680636E+03    0.23010E-05   -0.32950E-04 13896   0.999E-02    0.932E-02
DAV:  23    -0.116401663081E+03    0.17555E-04   -0.30544E-04 13672   0.862E-02    0.548E-02
DAV:  24    -0.116401718804E+03   -0.55723E-04   -0.12103E-04 13296   0.596E-02    0.635E-02
DAV:  25    -0.116401765535E+03   -0.46731E-04   -0.11040E-04  9856   0.500E-02    0.408E-02
DAV:  26    -0.116401876885E+03   -0.11135E-03   -0.27970E-05  8616   0.274E-02    0.190E-02
DAV:  27    -0.116402080428E+03   -0.20354E-03   -0.33963E-05  9984   0.259E-02    0.188E-02
DAV:  28    -0.116402254606E+03   -0.17418E-03   -0.16661E-05  9136   0.179E-02    0.195E-02
DAV:  29    -0.116402339667E+03   -0.85061E-04   -0.66324E-06  8264   0.125E-02    0.126E-02
DAV:  30    -0.116402449699E+03   -0.11003E-03   -0.60530E-06  8624   0.697E-03    0.918E-03
DAV:  31    -0.116402484418E+03   -0.34719E-04   -0.23349E-06  8576   0.704E-03    0.472E-03
DAV:  32    -0.116402514833E+03   -0.30416E-04   -0.15442E-06  7952   0.482E-03    0.326E-03
DAV:  33    -0.116402543589E+03   -0.28755E-04   -0.86663E-07  8216   0.346E-03    0.211E-03
DAV:  34    -0.116402561689E+03   -0.18101E-04   -0.67165E-07  8136   0.276E-03    0.297E-03
DAV:  35    -0.116402570051E+03   -0.83615E-05   -0.29896E-07  8208   0.212E-03
   1 F= -.11640257E+03 E0= -.11629976E+03  d E =-.308435E+00
