 vasp.5.4.4.18Apr17-6-g9f103f2a35 (build Apr 28 2017 10:53:45) complex          
  
 executed on             LinuxIFC date 2019.05.31  17:25:56
 running on   28 total cores
 distrk:  each k-point on   28 cores,    1 groups
 distr:  one band on NCORES_PER_BAND=   7 cores,    4 groups


--------------------------------------------------------------------------------------------------------


 INCAR:
 POTCAR:    PAW_PBE Ag 02Apr2005                  
 POTCAR:    PAW_PBE C 08Apr2002                   
 POTCAR:    PAW_PBE O 08Apr2002                   
 POTCAR:    PAW_PBE Pd 04Jan2005                  
 POTCAR:    PAW_PBE Rh 04Feb2005                  
 POTCAR:    PAW_PBE Ag 02Apr2005                  
   VRHFIN =Ag : s1 d10                                                          
   LEXCH  = PE                                                                  
   EATOM  =  1037.2675 eV,   76.2370 Ry                                         
                                                                                
   TITEL  = PAW_PBE Ag 02Apr2005                                                
   LULTRA =        F    use ultrasoft PP ?                                      
   IUNSCR =        1    unscreen: 0-lin 1-nonlin 2-no                           
   RPACOR =    2.000    partial core radius                                     
   POMASS =  107.868; ZVAL   =   11.000    mass and valenz                      
   RCORE  =    2.500    outmost cutoff radius                                   
   RWIGS  =    2.840; RWIGS  =    1.503    wigner-seitz radius (au A)           
   ENMAX  =  249.844; ENMIN  =  187.383 eV                                      
   ICORE  =        3    local potential                                         
   LCOR   =        T    correct aug charges                                     
   LPAW   =        T    paw PP                                                  
   EAUG   =  412.496                                                            
   DEXC   =    0.000                                                            
   RMAX   =    2.560    core radius for proj-oper                               
   RAUG   =    1.300    factor for augmentation sphere                          
   RDEP   =    2.576    radius for radial grids                                 
   RDEPT  =    2.072    core radius for aug-charge                              
                                                                                
   Atomic configuration                                                         
   12 entries                                                                   
     n  l   j            E        occ.                                          
     1  0  0.50    -25324.9161   2.0000                                         
     2  0  0.50     -3728.5341   2.0000                                         
     2  1  1.50     -3344.0404   6.0000                                         
     3  0  0.50      -683.5581   2.0000                                         
     3  1  1.50      -557.3225   6.0000                                         
     3  2  2.50      -358.3853  10.0000                                         
     4  0  0.50       -95.0341   2.0000                                         
     4  1  1.50       -58.5511   6.0000                                         
     4  2  2.50        -7.4440  10.0000                                         
     5  0  0.50        -4.4045   1.0000                                         
     5  1  0.50        -1.3606   0.0000                                         
     4  3  2.50        -1.3606   0.0000                                         
   Description                                                                  
     l       E           TYP  RCUT    TYP  RCUT                                 
     2     -7.4439781     23  2.400                                             
     2     -8.8045607     23  2.400                                             
     0     -4.4044681     23  2.400                                             
     0      1.9520038     23  2.400                                             
     1     -1.3605826     23  2.500                                             
     1     27.2116520     23  2.500                                             
     3     -4.0817478     23  2.400                                             
  local pseudopotential read in
  partial core-charges read in
  partial kinetic energy density read in
  atomic valenz-charges read in
  non local Contribution for L=           2  read in
    real space projection operators read in
  non local Contribution for L=           2  read in
    real space projection operators read in
  non local Contribution for L=           0  read in
    real space projection operators read in
  non local Contribution for L=           0  read in
    real space projection operators read in
  non local Contribution for L=           1  read in
    real space projection operators read in
  non local Contribution for L=           1  read in
    real space projection operators read in
    PAW grid and wavefunctions read in
 
   number of l-projection  operators is LMAX  =           6
   number of lm-projection operators is LMMAX =          18
 
 POTCAR:    PAW_PBE C 08Apr2002                   
   VRHFIN =C: s2p2                                                              
   LEXCH  = PE                                                                  
   EATOM  =   147.1560 eV,   10.8157 Ry                                         
                                                                                
   TITEL  = PAW_PBE C 08Apr2002                                                 
   LULTRA =        F    use ultrasoft PP ?                                      
   IUNSCR =        1    unscreen: 0-lin 1-nonlin 2-no                           
   RPACOR =    1.200    partial core radius                                     
   POMASS =   12.011; ZVAL   =    4.000    mass and valenz                      
   RCORE  =    1.500    outmost cutoff radius                                   
   RWIGS  =    1.630; RWIGS  =    0.863    wigner-seitz radius (au A)           
   ENMAX  =  400.000; ENMIN  =  300.000 eV                                      
   ICORE  =        2    local potential                                         
   LCOR   =        T    correct aug charges                                     
   LPAW   =        T    paw PP                                                  
   EAUG   =  644.873                                                            
   DEXC   =    0.000                                                            
   RMAX   =    1.529    core radius for proj-oper                               
   RAUG   =    1.300    factor for augmentation sphere                          
   RDEP   =    1.501    radius for radial grids                                 
   RDEPT  =    1.300    core radius for aug-charge                              
                                                                                
   Atomic configuration                                                         
    4 entries                                                                   
     n  l   j            E        occ.                                          
     1  0  0.50      -273.3789   2.0000                                         
     2  0  0.50       -13.7508   2.0000                                         
     2  1  0.50        -5.2854   2.0000                                         
     3  2  1.50        -5.4423   0.0000                                         
   Description                                                                  
     l       E           TYP  RCUT    TYP  RCUT                                 
     0    -13.7508458     23  1.200                                             
     0     -8.2022199     23  1.200                                             
     1     -5.2854383     23  1.500                                             
     1     34.0145650     23  1.500                                             
     2     -5.4423304      7  1.500                                             
  local pseudopotential read in
  partial core-charges read in
  partial kinetic energy density read in
  atomic valenz-charges read in
  non local Contribution for L=           0  read in
    real space projection operators read in
  non local Contribution for L=           0  read in
    real space projection operators read in
  non local Contribution for L=           1  read in
    real space projection operators read in
  non local Contribution for L=           1  read in
    real space projection operators read in
    PAW grid and wavefunctions read in
 
   number of l-projection  operators is LMAX  =           4
   number of lm-projection operators is LMMAX =           8
 
 POTCAR:    PAW_PBE O 08Apr2002                   
   VRHFIN =O: s2p4                                                              
   LEXCH  = PE                                                                  
   EATOM  =   432.3788 eV,   31.7789 Ry                                         
                                                                                
   TITEL  = PAW_PBE O 08Apr2002                                                 
   LULTRA =        F    use ultrasoft PP ?                                      
   IUNSCR =        1    unscreen: 0-lin 1-nonlin 2-no                           
   RPACOR =    1.200    partial core radius                                     
   POMASS =   16.000; ZVAL   =    6.000    mass and valenz                      
   RCORE  =    1.520    outmost cutoff radius                                   
   RWIGS  =    1.550; RWIGS  =    0.820    wigner-seitz radius (au A)           
   ENMAX  =  400.000; ENMIN  =  300.000 eV                                      
   ICORE  =        2    local potential                                         
   LCOR   =        T    correct aug charges                                     
   LPAW   =        T    paw PP                                                  
   EAUG   =  605.392                                                            
   DEXC   =    0.000                                                            
   RMAX   =    1.553    core radius for proj-oper                               
   RAUG   =    1.300    factor for augmentation sphere                          
   RDEP   =    1.550    radius for radial grids                                 
   RDEPT  =    1.329    core radius for aug-charge                              
                                                                                
   Atomic configuration                                                         
    4 entries                                                                   
     n  l   j            E        occ.                                          
     1  0  0.50      -514.6923   2.0000                                         
     2  0  0.50       -23.9615   2.0000                                         
     2  1  0.50        -9.0305   4.0000                                         
     3  2  1.50        -9.5241   0.0000                                         
   Description                                                                  
     l       E           TYP  RCUT    TYP  RCUT                                 
     0    -23.9615318     23  1.200                                             
     0     -9.5240782     23  1.200                                             
     1     -9.0304911     23  1.520                                             
     1      8.1634956     23  1.520                                             
     2     -9.5240782      7  1.500                                             
  local pseudopotential read in
  partial core-charges read in
  partial kinetic energy density read in
  kinetic energy density of atom read in
  atomic valenz-charges read in
  non local Contribution for L=           0  read in
    real space projection operators read in
  non local Contribution for L=           0  read in
    real space projection operators read in
  non local Contribution for L=           1  read in
    real space projection operators read in
  non local Contribution for L=           1  read in
    real space projection operators read in
    PAW grid and wavefunctions read in
 
   number of l-projection  operators is LMAX  =           4
   number of lm-projection operators is LMMAX =           8
 
 POTCAR:    PAW_PBE Pd 04Jan2005                  
   VRHFIN =Pd : s1 d9                                                           
   LEXCH  = PE                                                                  
   EATOM  =   809.7530 eV,   59.5152 Ry                                         
                                                                                
   TITEL  = PAW_PBE Pd 04Jan2005                                                
   LULTRA =        F    use ultrasoft PP ?                                      
   IUNSCR =        1    unscreen: 0-lin 1-nonlin 2-no                           
   RPACOR =    2.000    partial core radius                                     
   POMASS =  106.420; ZVAL   =   10.000    mass and valenz                      
   RCORE  =    2.600    outmost cutoff radius                                   
   RWIGS  =    2.710; RWIGS  =    1.434    wigner-seitz radius (au A)           
   ENMAX  =  250.925; ENMIN  =  188.194 eV                                      
   ICORE  =        3    local potential                                         
   LCOR   =        T    correct aug charges                                     
   LPAW   =        T    paw PP                                                  
   EAUG   =  416.230                                                            
   DEXC   =    0.000                                                            
   RMAX   =    2.653    core radius for proj-oper                               
   RAUG   =    1.300    factor for augmentation sphere                          
   RDEP   =    2.734    radius for radial grids                                 
   RDEPT  =    2.103    core radius for aug-charge                              
                                                                                
   Atomic configuration                                                         
   12 entries                                                                   
     n  l   j            E        occ.                                          
     1  0  0.50    -24164.6631   2.0000                                         
     2  0  0.50     -3530.9218   2.0000                                         
     2  1  1.50     -3165.6822   6.0000                                         
     3  0  0.50      -639.4577   2.0000                                         
     3  1  1.50      -519.4532   6.0000                                         
     3  2  2.50      -328.9757  10.0000                                         
     4  0  0.50       -88.7014   2.0000                                         
     4  1  1.50       -54.4540   6.0000                                         
     4  2  2.50        -6.6878   9.0000                                         
     5  0  0.50        -4.3543   1.0000                                         
     5  1  0.50        -1.3606   0.0000                                         
     4  3  2.50        -1.3606   0.0000                                         
   Description                                                                  
     l       E           TYP  RCUT    TYP  RCUT                                 
     2     -6.6878251     23  2.400                                             
     2     -8.0484077     23  2.400                                             
     0     -4.3542939     23  2.400                                             
     0      4.3406793     23  2.400                                             
     1     -4.0817478     23  2.600                                             
     1     15.8380318     23  2.600                                             
     3     -4.0817478     23  2.400                                             
  local pseudopotential read in
  partial core-charges read in
  partial kinetic energy density read in
  atomic valenz-charges read in
  non local Contribution for L=           2  read in
    real space projection operators read in
  non local Contribution for L=           2  read in
    real space projection operators read in
  non local Contribution for L=           0  read in
    real space projection operators read in
  non local Contribution for L=           0  read in
    real space projection operators read in
  non local Contribution for L=           1  read in
    real space projection operators read in
  non local Contribution for L=           1  read in
    real space projection operators read in
    PAW grid and wavefunctions read in
 
   number of l-projection  operators is LMAX  =           6
   number of lm-projection operators is LMMAX =          18
 
 POTCAR:    PAW_PBE Rh 04Feb2005                  
   VRHFIN =Rh: s1 d8                                                            
   LEXCH  = PE                                                                  
   EATOM  =   616.4198 eV,   45.3056 Ry                                         
                                                                                
   TITEL  = PAW_PBE Rh 04Feb2005                                                
   LULTRA =        F    use ultrasoft PP ?                                      
   IUNSCR =        1    unscreen: 0-lin 1-nonlin 2-no                           
   RPACOR =    2.170    partial core radius                                     
   POMASS =  102.906; ZVAL   =    9.000    mass and valenz                      
   RCORE  =    2.700    outmost cutoff radius                                   
   RWIGS  =    2.650; RWIGS  =    1.402    wigner-seitz radius (au A)           
   ENMAX  =  228.996; ENMIN  =  171.747 eV                                      
   ICORE  =        3    local potential                                         
   LCOR   =        T    correct aug charges                                     
   LPAW   =        T    paw PP                                                  
   EAUG   =  374.513                                                            
   DEXC   =    0.000                                                            
   RMAX   =    2.752    core radius for proj-oper                               
   RAUG   =    1.300    factor for augmentation sphere                          
   RDEP   =    2.703    radius for radial grids                                 
   RDEPT  =    2.174    core radius for aug-charge                              
                                                                                
   Atomic configuration                                                         
   12 entries                                                                   
     n  l   j            E        occ.                                          
     1  0  0.50    -23034.1986   2.0000                                         
     2  0  0.50     -3339.2387   2.0000                                         
     2  1  1.50     -2992.3290   6.0000                                         
     3  0  0.50      -596.7249   2.0000                                         
     3  1  1.50      -482.7183   6.0000                                         
     3  2  2.50      -300.5356  10.0000                                         
     4  0  0.50       -82.4809   2.0000                                         
     4  1  0.50       -50.4082   6.0000                                         
     4  2  2.50        -5.9408   8.0000                                         
     5  0  0.50        -4.2999   1.0000                                         
     5  1  1.50        -1.3606   0.0000                                         
     4  3  2.50        -1.3606   0.0000                                         
   Description                                                                  
     l       E           TYP  RCUT    TYP  RCUT                                 
     2     -5.9407964     23  2.500                                             
     2     -7.3013790     23  2.500                                             
     0     -4.2998518     23  2.400                                             
     0      6.0533315     23  2.400                                             
     1     -4.0817478     23  2.700                                             
     1     27.2116520     23  2.700                                             
     3     -4.0817478     23  2.500                                             
  local pseudopotential read in
  partial core-charges read in
  partial kinetic energy density read in
  atomic valenz-charges read in
  non local Contribution for L=           2  read in
    real space projection operators read in
  non local Contribution for L=           2  read in
    real space projection operators read in
  non local Contribution for L=           0  read in
    real space projection operators read in
  non local Contribution for L=           0  read in
    real space projection operators read in
  non local Contribution for L=           1  read in
    real space projection operators read in
  non local Contribution for L=           1  read in
    real space projection operators read in
    PAW grid and wavefunctions read in
 
   number of l-projection  operators is LMAX  =           6
   number of lm-projection operators is LMMAX =          18
 
 Optimization of the real space projectors (new method)

 maximal supplied QI-value         = 15.12
 optimisation between [QCUT,QGAM] = [  9.52, 19.05] = [ 25.40,101.61] Ry 
 Optimized for a Real-space Cutoff    1.43 Angstroem

   l    n(q)    QCUT    max X(q) W(low)/X(q) W(high)/X(q)  e(spline) 
   2      7     9.524    53.897    0.36E-03    0.74E-03    0.67E-07
   2      7     9.524    52.416    0.37E-03    0.76E-03    0.67E-07
   0      8     9.524   122.045    0.11E-03    0.28E-03    0.55E-07
   0      8     9.524    73.629    0.11E-03    0.27E-03    0.53E-07
   1      8     9.524    15.255    0.22E-03    0.34E-03    0.12E-06
   1      8     9.524     9.562    0.19E-03    0.28E-03    0.10E-06
 Optimization of the real space projectors (new method)

 maximal supplied QI-value         = 25.13
 optimisation between [QCUT,QGAM] = [  9.55, 19.10] = [ 25.54,102.17] Ry 
 Optimized for a Real-space Cutoff    1.39 Angstroem

   l    n(q)    QCUT    max X(q) W(low)/X(q) W(high)/X(q)  e(spline) 
   0      8     9.551   115.676    0.39E-03    0.54E-03    0.29E-06
   0      8     9.551    87.132    0.39E-03    0.54E-03    0.28E-06
   1      7     9.551     4.429    0.35E-03    0.51E-04    0.29E-06
   1      7     9.551     2.733    0.22E-03    0.42E-04    0.31E-06
 Optimization of the real space projectors (new method)

 maximal supplied QI-value         = 24.76
 optimisation between [QCUT,QGAM] = [  9.41, 19.06] = [ 24.78,101.75] Ry 
 Optimized for a Real-space Cutoff    1.48 Angstroem

   l    n(q)    QCUT    max X(q) W(low)/X(q) W(high)/X(q)  e(spline) 
   0      8     9.407    20.381    0.17E-03    0.13E-03    0.41E-06
   0      8     9.407    15.268    0.19E-03    0.15E-03    0.42E-06
   1      8     9.407     5.946    0.36E-03    0.29E-03    0.38E-06
   1      8     9.407     5.382    0.31E-03    0.24E-03    0.34E-06
 Optimization of the real space projectors (new method)

 maximal supplied QI-value         = 14.36
 optimisation between [QCUT,QGAM] = [  9.48, 19.10] = [ 25.16,102.17] Ry 
 Optimized for a Real-space Cutoff    1.52 Angstroem

   l    n(q)    QCUT    max X(q) W(low)/X(q) W(high)/X(q)  e(spline) 
   2      8     9.479    59.108    0.48E-04    0.31E-03    0.96E-07
   2      8     9.479    58.101    0.46E-04    0.32E-03    0.99E-07
   0      9     9.479   102.235    0.56E-04    0.11E-03    0.61E-07
   0      9     9.479    58.388    0.50E-04    0.10E-03    0.58E-07
   1      8     9.479    22.191    0.26E-03    0.25E-04    0.13E-06
   1      8     9.479    15.590    0.22E-03    0.23E-04    0.11E-06
 Optimization of the real space projectors (new method)

 maximal supplied QI-value         = 13.98
 optimisation between [QCUT,QGAM] = [  9.51, 19.16] = [ 25.32,102.78] Ry 
 Optimized for a Real-space Cutoff    1.57 Angstroem

   l    n(q)    QCUT    max X(q) W(low)/X(q) W(high)/X(q)  e(spline) 
   2      8     9.509    59.645    0.36E-03    0.26E-04    0.85E-07
   2      8     9.509    58.460    0.36E-03    0.26E-04    0.89E-07
   0      9     9.509    97.683    0.11E-03    0.15E-03    0.88E-07
   0      9     9.509    53.223    0.10E-03    0.14E-03    0.82E-07
   1      8     9.509    13.596    0.23E-03    0.93E-04    0.99E-07
   1      8     9.509     7.885    0.17E-03    0.72E-04    0.80E-07
  PAW_PBE Ag 02Apr2005                  :
 energy of atom  1       EATOM=-1037.2675
 kinetic energy error for atom=    0.0272 (will be added to EATOM!!)
  PAW_PBE C 08Apr2002                   :
 energy of atom  2       EATOM= -147.1560
 kinetic energy error for atom=    0.0854 (will be added to EATOM!!)
  PAW_PBE O 08Apr2002                   :
 energy of atom  3       EATOM= -432.3788
 kinetic energy error for atom=    0.3782 (will be added to EATOM!!)
  PAW_PBE Pd 04Jan2005                  :
 energy of atom  4       EATOM= -809.7530
 kinetic energy error for atom=    0.0269 (will be added to EATOM!!)
  PAW_PBE Rh 04Feb2005                  :
 energy of atom  5       EATOM= -616.4198
 kinetic energy error for atom=    0.0105 (will be added to EATOM!!)
 
 
 POSCAR: Ag  C  O Pd Rh                          
  positions in cartesian coordinates
  No initial velocities read in
 exchange correlation table for  LEXCH =        8
   RHO(1)=    0.500       N(1)  =     2000
   RHO(2)=  100.500       N(2)  =     4000
 


--------------------------------------------------------------------------------------------------------


 ion  position               nearest neighbor table
   1  0.500  0.500  0.657-  19 2.79  17 2.79  18 2.79  17 2.79  19 2.79  18 2.79  14 2.79  13 2.79
                            16 2.79
   2  0.167  0.167  0.704-   3 1.19  17 2.07  18 2.07  19 2.07
   3  0.167  0.167  0.745-   2 1.19
   4  0.333  0.333  0.344-   9 2.79   8 2.79  22 2.79  11 2.79   6 2.79   5 2.79   6 2.79   5 2.79
                            11 2.79
   5  0.833  0.833  0.344-   7 2.79   8 2.79  22 2.79  11 2.79   6 2.79   4 2.79  11 2.79   4 2.79
                             6 2.79
   6  0.333  0.833  0.344-   8 2.79   7 2.79   9 2.79   5 2.79   4 2.79   4 2.79  11 2.79   5 2.79
                            11 2.79
   7  0.000  0.000  0.422-   5 2.79   6 2.79  11 2.79   8 2.79  22 2.79   9 2.79  22 2.79   8 2.79
                             9 2.79  21 2.80  20 2.80  10 2.80
   8  0.500  0.000  0.422-   6 2.79   5 2.79   4 2.79   7 2.79   9 2.79   9 2.79  22 2.79   7 2.79
                            22 2.79  20 2.80  12 2.80  10 2.80
   9  0.500  0.500  0.422-   4 2.79   6 2.79  11 2.79   8 2.79  22 2.79   7 2.79   8 2.79   7 2.79
                            22 2.79  12 2.79  21 2.79  20 2.79
  10  0.167  0.167  0.501-  21 2.79  12 2.79  12 2.79  20 2.79  21 2.79  20 2.79  13 2.79  16 2.79
                            14 2.79   7 2.80   8 2.80  22 2.80
  11  0.833  0.333  0.344-  22 2.79   9 2.79   7 2.79   5 2.79   4 2.79   5 2.79   6 2.79   4 2.79
                             6 2.79
  12  0.666  0.666  0.500-  20 2.78  21 2.78  10 2.79  10 2.79  20 2.79  21 2.79   9 2.79  13 2.79
                            16 2.79   8 2.80  22 2.80  15 2.83
  13  0.834  0.333  0.579-  14 2.78  16 2.78  15 2.79  15 2.79  10 2.79   1 2.79  16 2.79  14 2.79
                            12 2.79  20 2.79  19 2.85  17 2.85
  14  0.333  0.333  0.579-  13 2.78  16 2.78  15 2.79  15 2.79  10 2.79   1 2.79  13 2.79  16 2.79
                            21 2.79  20 2.79  18 2.85  19 2.85
  15  0.833  0.833  0.580-  13 2.79  16 2.79  14 2.79  14 2.79  13 2.79  16 2.79  17 2.82  18 2.82
                            19 2.82  20 2.83  21 2.83  12 2.83
  16  0.333  0.834  0.579-  13 2.78  14 2.78  15 2.79  15 2.79  10 2.79   1 2.79  13 2.79  14 2.79
                            12 2.79  21 2.79  18 2.85  17 2.85
  17  1.000  1.000  0.660-   2 2.07  18 2.78  19 2.78   1 2.79   1 2.79  19 2.79  18 2.79  15 2.82
                            13 2.85  16 2.85
  18  0.501  1.000  0.660-   2 2.07  17 2.78  19 2.78   1 2.79   1 2.79  19 2.79  17 2.79  15 2.82
                            16 2.85  14 2.85
  19  1.000  0.501  0.660-   2 2.07  17 2.78  18 2.78   1 2.79   1 2.79  18 2.79  17 2.79  15 2.82
                            13 2.85  14 2.85
  20  0.666  0.167  0.500-  12 2.78  21 2.78  10 2.79  10 2.79  21 2.79  12 2.79   9 2.79  14 2.79
                            13 2.79   8 2.80   7 2.80  15 2.83
  21  0.167  0.666  0.500-  12 2.78  20 2.78  10 2.79  10 2.79  20 2.79  12 2.79   9 2.79  14 2.79
                            16 2.79  22 2.80   7 2.80  15 2.83
  22  0.000  0.500  0.422-  11 2.79   5 2.79   4 2.79   9 2.79   7 2.79   7 2.79   8 2.79   8 2.79
                             9 2.79  21 2.80  12 2.80  10 2.80
 
  LATTYP: Found a hexagonal cell.
 ALAT       =     5.5720014357
 C/A-ratio  =     5.2223676856
  
  Lattice vectors:
  
 A1 = (   2.7860007179,  -4.8254947933,   0.0000000000)
 A2 = (  -5.5720014357,   0.0000000000,   0.0000000000)
 A3 = (   0.0000000000,   0.0000000000, -29.0990402424)


Analysis of symmetry for initial positions (statically):
=====================================================================
 Subroutine PRICEL returns:
 Original cell was already a primitive cell.
 

 Routine SETGRP: Setting up the symmetry group for a 
 hexagonal supercell.


 Subroutine GETGRP returns: Found  2 space group operations
 (whereof  1 operations were pure point group operations)
 out of a pool of 24 trial point group operations.


The static configuration has the point symmetry C_1 .
 The point group associated with its full space group is C_1h.


Analysis of symmetry for dynamics (positions and initial velocities):
=====================================================================
 Subroutine PRICEL returns:
 Original cell was already a primitive cell.
 

 Routine SETGRP: Setting up the symmetry group for a 
 hexagonal supercell.


 Subroutine GETGRP returns: Found  2 space group operations
 (whereof  1 operations were pure point group operations)
 out of a pool of 24 trial point group operations.


The dynamic configuration has the point symmetry C_1 .
 The point group associated with its full space group is C_1h.


Analysis of constrained symmetry for selective dynamics:
=====================================================================
 Subroutine PRICEL returns:
 Original cell was already a primitive cell.
 

 Routine SETGRP: Setting up the symmetry group for a 
 hexagonal supercell.


 Subroutine GETGRP returns: Found  2 space group operations
 (whereof  1 operations were pure point group operations)
 out of a pool of 24 trial point group operations.


The constrained configuration has the point symmetry C_1 .
 The point group associated with its full space group is C_1h.


 Subroutine INISYM returns: Found  2 space group operations
 (whereof  1 operations are pure point group operations),
 and found     1 'primitive' translations

 
 
 KPOINTS: 0_1_Rh14_Ag2                            

Automatic generation of k-mesh.
Space group operators:
 irot       det(A)        alpha          n_x          n_y          n_z        tau_x        tau_y        tau_z
    1     1.000000     0.000000     1.000000     0.000000     0.000000     0.000000     0.000000     0.000000
    2    -1.000000   180.000000     1.000000     0.000000     0.000000    -0.500000     0.000000     0.000000
 
 Subroutine IBZKPT returns following result:
 ===========================================
 
 Found     52 irreducible k-points:
 
 Following reciprocal coordinates:
            Coordinates               Weight
  0.062500  0.062500  0.000000     32.000000
  0.000000  0.062500  0.000000     16.000000
  0.187500  0.062500  0.000000     32.000000
  0.125000  0.187500  0.000000     32.000000
 -0.062500  0.125000  0.000000     32.000000
  0.312500  0.062500  0.000000     32.000000
  0.250000  0.312500  0.000000     32.000000
 -0.062500  0.250000  0.000000     32.000000
  0.437500  0.062500  0.000000     32.000000
  0.375000  0.437500  0.000000     32.000000
 -0.062500  0.375000  0.000000     32.000000
 -0.437500  0.062500  0.000000     32.000000
  0.500000 -0.437500  0.000000     32.000000
 -0.062500  0.500000  0.000000     32.000000
 -0.312500  0.062500  0.000000     32.000000
 -0.375000 -0.312500  0.000000     32.000000
 -0.062500 -0.375000  0.000000     32.000000
 -0.187500  0.062500  0.000000     32.000000
 -0.250000 -0.187500  0.000000     32.000000
 -0.062500 -0.250000  0.000000     32.000000
 -0.062500  0.062500  0.000000     32.000000
 -0.125000 -0.062500  0.000000     16.000000
  0.187500  0.187500  0.000000     32.000000
  0.000000  0.187500  0.000000     16.000000
  0.312500  0.187500  0.000000     32.000000
  0.125000  0.312500  0.000000     32.000000
 -0.187500  0.125000  0.000000     32.000000
  0.437500  0.187500  0.000000     32.000000
  0.250000  0.437500  0.000000     32.000000
 -0.187500  0.250000  0.000000     32.000000
 -0.437500  0.187500  0.000000     32.000000
  0.375000 -0.437500  0.000000     32.000000
 -0.187500  0.375000  0.000000     32.000000
 -0.312500  0.187500  0.000000     32.000000
  0.500000 -0.312500  0.000000     32.000000
 -0.187500  0.500000  0.000000     32.000000
 -0.187500  0.187500  0.000000     32.000000
 -0.375000 -0.187500  0.000000     16.000000
  0.312500  0.312500  0.000000     32.000000
  0.000000  0.312500  0.000000     16.000000
  0.437500  0.312500  0.000000     32.000000
  0.125000  0.437500  0.000000     32.000000
 -0.312500  0.125000  0.000000     32.000000
 -0.437500  0.312500  0.000000     32.000000
  0.250000 -0.437500  0.000000     32.000000
 -0.312500  0.250000  0.000000     32.000000
 -0.312500  0.312500  0.000000     32.000000
  0.375000 -0.312500  0.000000     16.000000
  0.437500  0.437500  0.000000     32.000000
  0.000000  0.437500  0.000000     16.000000
 -0.437500  0.437500  0.000000     32.000000
  0.125000 -0.437500  0.000000     16.000000
 
 Following cartesian coordinates:
            Coordinates               Weight
  0.011217  0.006476  0.000000     32.000000
  0.000000  0.012952  0.000000     16.000000
  0.033650 -0.006476  0.000000     32.000000
  0.022434  0.025904  0.000000     32.000000
 -0.011217  0.032380  0.000000     32.000000
  0.056084 -0.019428  0.000000     32.000000
  0.044867  0.038856  0.000000     32.000000
 -0.011217  0.058284  0.000000     32.000000
  0.078518 -0.032380  0.000000     32.000000
  0.067301  0.051808  0.000000     32.000000
 -0.011217  0.084188  0.000000     32.000000
 -0.078518  0.058284  0.000000     32.000000
  0.089734 -0.142472  0.000000     32.000000
 -0.011217  0.110092  0.000000     32.000000
 -0.056084  0.045332  0.000000     32.000000
 -0.067301 -0.025904  0.000000     32.000000
 -0.011217 -0.071236  0.000000     32.000000
 -0.033650  0.032380  0.000000     32.000000
 -0.044867 -0.012952  0.000000     32.000000
 -0.011217 -0.045332  0.000000     32.000000
 -0.011217  0.019428  0.000000     32.000000
 -0.022434  0.000000  0.000000     16.000000
  0.033650  0.019428  0.000000     32.000000
  0.000000  0.038856  0.000000     16.000000
  0.056084  0.006476  0.000000     32.000000
  0.022434  0.051808  0.000000     32.000000
 -0.033650  0.045332  0.000000     32.000000
  0.078518 -0.006476  0.000000     32.000000
  0.044867  0.064760  0.000000     32.000000
 -0.033650  0.071236  0.000000     32.000000
 -0.078518  0.084188  0.000000     32.000000
  0.067301 -0.129520  0.000000     32.000000
 -0.033650  0.097140  0.000000     32.000000
 -0.056084  0.071236  0.000000     32.000000
  0.089734 -0.116568  0.000000     32.000000
 -0.033650  0.123044  0.000000     32.000000
 -0.033650  0.058284  0.000000     32.000000
 -0.067301  0.000000  0.000000     16.000000
  0.056084  0.032380  0.000000     32.000000
  0.000000  0.064760  0.000000     16.000000
  0.078518  0.019428  0.000000     32.000000
  0.022434  0.077712  0.000000     32.000000
 -0.056084  0.058284  0.000000     32.000000
 -0.078518  0.110092  0.000000     32.000000
  0.044867 -0.116568  0.000000     32.000000
 -0.056084  0.084188  0.000000     32.000000
 -0.056084  0.097140  0.000000     32.000000
  0.067301 -0.103616  0.000000     16.000000
  0.078518  0.045332  0.000000     32.000000
  0.000000  0.090664  0.000000     16.000000
 -0.078518  0.135996  0.000000     32.000000
  0.022434 -0.103616  0.000000     16.000000
 


--------------------------------------------------------------------------------------------------------




 Dimension of arrays:
   k-points           NKPTS =     52   k-points in BZ     NKDIM =     52   number of bands    NBANDS=    128
   number of dos      NEDOS =    301   number of ions     NIONS =     22
   non local maximal  LDIM  =      6   non local SUM 2l+1 LMDIM =     18
   total plane-waves  NPLWV = 109760
   max r-space proj   IRMAX =   2305   max aug-charges    IRDMAX=   8172
   dimension x,y,z NGX =    28 NGY =   28 NGZ =  140
   dimension x,y,z NGXF=    56 NGYF=   56 NGZF=  280
   support grid    NGXF=    56 NGYF=   56 NGZF=  280
   ions per type =               1   1   1  18   1
   NGX,Y,Z   is equivalent  to a cutoff of   8.35,  8.35,  8.00 a.u.
   NGXF,Y,Z  is equivalent  to a cutoff of  16.71, 16.71, 16.00 a.u.

 SYSTEM =  0_1_Rh14_Ag2                            
 POSCAR =  Ag  C  O Pd Rh                          

 Startparameter for this run:
   NWRITE =      2    write-flag & timer
   PREC   = normal    normal or accurate (medium, high low for compatibility)
   ISTART =      0    job   : 0-new  1-cont  2-samecut
   ICHARG =      2    charge: 1-file 2-atom 10-const
   ISPIN  =      1    spin polarized calculation?
   LNONCOLLINEAR =      F non collinear calculations
   LSORBIT =      F    spin-orbit coupling
   INIWAV =      1    electr: 0-lowe 1-rand  2-diag
   LASPH  =      F    aspherical Exc in radial PAW
   METAGGA=      F    non-selfconsistent MetaGGA calc.

 Electronic Relaxation 1
   ENCUT  =  350.0 eV  25.72 Ry    5.07 a.u.   8.50  8.50 44.39*2*pi/ulx,y,z
   ENINI  =  350.0     initial cutoff
   ENAUG  =  644.9 eV  augmentation charge cutoff
   NELM   =    300;   NELMIN=  5; NELMDL= -5     # of ELM steps 
   EDIFF  = 0.1E-04   stopping-criterion for ELM
   LREAL  =      T    real-space projection
   NLSPLINE    = F    spline interpolate recip. space projectors
   LCOMPAT=      F    compatible to vasp.4.4
   GGA_COMPAT  = T    GGA compatible to vasp.4.4-vasp.4.6
   LMAXPAW     = -100 max onsite density
   LMAXMIX     =    2 max onsite mixed and CHGCAR
   VOSKOWN=      0    Vosko Wilk Nusair interpolation
   ROPT   =   -0.00050  -0.00050  -0.00050  -0.00050
   ROPT   =   -0.00050
 Ionic relaxation
   EDIFFG = 0.1E-03   stopping-criterion for IOM
   NSW    =      0    number of steps for IOM
   NBLOCK =      1;   KBLOCK =      1    inner block; outer block 
   IBRION =     -1    ionic relax: 0-MD 1-quasi-New 2-CG
   NFREE  =      0    steps in history (QN), initial steepest desc. (CG)
   ISIF   =      2    stress and relaxation
   IWAVPR =     10    prediction:  0-non 1-charg 2-wave 3-comb
   ISYM   =      2    0-nonsym 1-usesym 2-fastsym
   LCORR  =      T    Harris-Foulkes like correction to forces

   POTIM  = 0.5000    time-step for ionic-motion
   TEIN   =    0.0    initial temperature
   TEBEG  =    0.0;   TEEND  =   0.0 temperature during run
   SMASS  =  -3.00    Nose mass-parameter (am)
   estimated Nose-frequenzy (Omega)   =  0.10E-29 period in steps =****** mass=  -0.710E-27a.u.
   SCALEE = 1.0000    scale energy and forces
   NPACO  =    256;   APACO  = 16.0  distance and # of slots for P.C.
   PSTRESS=    0.0 pullay stress

  Mass of Ions in am
   POMASS = 107.87 12.01 16.00106.42102.91
  Ionic Valenz
   ZVAL   =  11.00  4.00  6.00 10.00  9.00
  Atomic Wigner-Seitz radii
   RWIGS  =  -1.00 -1.00 -1.00 -1.00 -1.00
  virtual crystal weights 
   VCA    =   1.00  1.00  1.00  1.00  1.00
   NELECT =     210.0000    total number of electrons
   NUPDOWN=      -1.0000    fix difference up-down

 DOS related values:
   EMIN   =  10.00;   EMAX   =-10.00  energy-range for DOS
   EFERMI =   0.00
   ISMEAR =     1;   SIGMA  =   0.40  broadening in eV -4-tet -1-fermi 0-gaus

 Electronic relaxation 2 (details)
   IALGO  =     38    algorithm
   LDIAG  =      T    sub-space diagonalisation (order eigenvalues)
   LSUBROT=      F    optimize rotation matrix (better conditioning)
   TURBO    =      0    0=normal 1=particle mesh
   IRESTART =      0    0=no restart 2=restart with 2 vectors
   NREBOOT  =      0    no. of reboots
   NMIN     =      0    reboot dimension
   EREF     =   0.00    reference energy to select bands
   IMIX   =      4    mixing-type and parameters
     AMIX     =   0.40;   BMIX     =  1.00
     AMIX_MAG =   1.60;   BMIX_MAG =  1.00
     AMIN     =   0.10
     WC   =   100.;   INIMIX=   1;  MIXPRE=   1;  MAXMIX= -45

 Intra band minimization:
   WEIMIN = 0.0000     energy-eigenvalue tresh-hold
   EBREAK =  0.20E-07  absolut break condition
   DEPER  =   0.30     relativ break condition  

   TIME   =   0.40     timestep for ELM

  volume/ion in A,a.u.               =      35.56       240.00
  Fermi-wavevector in a.u.,A,eV,Ry     =   1.056016  1.995582 15.172819  1.115171
  Thomas-Fermi vector in A             =   2.191236
 
 Write flags
   LWAVE        =      F    write WAVECAR
   LDOWNSAMPLE  =      F    k-point downsampling of WAVECAR
   LCHARG       =      F    write CHGCAR
   LVTOT        =      F    write LOCPOT, total local potential
   LVHAR        =      F    write LOCPOT, Hartree potential only
   LELF         =      F    write electronic localiz. function (ELF)
   LORBIT       =     11    0 simple, 1 ext, 2 COOP (PROOUT), +10 PAW based schemes


 Dipole corrections
   LMONO  =      F    monopole corrections only (constant potential shift)
   LDIPOL =      F    correct potential (dipole corrections)
   IDIPOL =      0    1-x, 2-y, 3-z, 4-all directions 
   EPSILON=  1.0000000 bulk dielectric constant

 Exchange correlation treatment:
   GGA     =    --    GGA type
   LEXCH   =     8    internal setting for exchange type
   VOSKOWN=      0    Vosko Wilk Nusair interpolation
   LHFCALC =     F    Hartree Fock is set to
   LHFONE  =     F    Hartree Fock one center treatment
   AEXX    =    0.0000 exact exchange contribution

 Linear response parameters
   LEPSILON=     F    determine dielectric tensor
   LRPA    =     F    only Hartree local field effects (RPA)
   LNABLA  =     F    use nabla operator in PAW spheres
   LVEL    =     F    velocity operator in full k-point grid
   LINTERFAST=   F  fast interpolation
   KINTER  =     0    interpolate to denser k-point grid
   CSHIFT  =0.1000    complex shift for real part using Kramers Kronig
   OMEGAMAX=  -1.0    maximum frequency
   DEG_THRESHOLD= 0.2000000E-02 threshold for treating states as degnerate
   RTIME   =   -0.100 relaxation time in fs
  (WPLASMAI=    0.000 imaginary part of plasma frequency in eV, 0.658/RTIME)
   DFIELD  = 0.0000000 0.0000000 0.0000000 field for delta impulse in time
 
 Orbital magnetization related:
   ORBITALMAG=     F  switch on orbital magnetization
   LCHIMAG   =     F  perturbation theory with respect to B field
   DQ        =  0.001000  dq finite difference perturbation B field
   LLRAUG    =     F  two centre corrections for induced B field



--------------------------------------------------------------------------------------------------------


 Static calculation
 charge density and potential will be updated during run
 non-spin polarized calculation
 Variant of blocked Davidson
 Davidson routine will perform the subspace rotation
 perform sub-space diagonalisation
    after iterative eigenvector-optimisation
 modified Broyden-mixing scheme, WC =      100.0
 initial mixing is a Kerker type mixing with AMIX =  0.4000 and BMIX =      1.0000
 Hartree-type preconditioning will be used
 using additional bands           23
 real space projection scheme for non local part
 use partial core corrections
 calculate Harris-corrections to forces 
   (improved forces if not selfconsistent)
 use gradient corrections 
 use of overlap-Matrix (Vanderbilt PP)
 Methfessel and Paxton  Order N= 1 SIGMA  =   0.40


--------------------------------------------------------------------------------------------------------


  energy-cutoff  :      350.00
  volume of cell :      782.41
      direct lattice vectors                 reciprocal lattice vectors
     5.572001436  0.000000000  0.000000000     0.179468726 -0.103616317  0.000000000
     2.786000718  4.825494793  0.000000000     0.000000000  0.207232635  0.000000000
     0.000000000  0.000000000 29.099040242     0.000000000  0.000000000  0.034365395

  length of vectors
     5.572001436  5.572001436 29.099040242     0.207232635  0.207232635  0.034365395


 
 k-points in units of 2pi/SCALE and weight: 0_1_Rh14_Ag2                            
   0.01121680  0.00647602  0.00000000       0.021
   0.00000000  0.01295204  0.00000000       0.010
   0.03365039 -0.00647602  0.00000000       0.021
   0.02243359  0.02590408  0.00000000       0.021
  -0.01121680  0.03238010  0.00000000       0.021
   0.05608398 -0.01942806  0.00000000       0.021
   0.04486718  0.03885612  0.00000000       0.021
  -0.01121680  0.05828418  0.00000000       0.021
   0.07851757 -0.03238010  0.00000000       0.021
   0.06730077  0.05180816  0.00000000       0.021
  -0.01121680  0.08418826  0.00000000       0.021
  -0.07851757  0.05828418  0.00000000       0.021
   0.08973436 -0.14247244  0.00000000       0.021
  -0.01121680  0.11009234  0.00000000       0.021
  -0.05608398  0.04533214  0.00000000       0.021
  -0.06730077 -0.02590408  0.00000000       0.021
  -0.01121680 -0.07123622  0.00000000       0.021
  -0.03365039  0.03238010  0.00000000       0.021
  -0.04486718 -0.01295204  0.00000000       0.021
  -0.01121680 -0.04533214  0.00000000       0.021
  -0.01121680  0.01942806  0.00000000       0.021
  -0.02243359  0.00000000  0.00000000       0.010
   0.03365039  0.01942806  0.00000000       0.021
   0.00000000  0.03885612  0.00000000       0.010
   0.05608398  0.00647602  0.00000000       0.021
   0.02243359  0.05180816  0.00000000       0.021
  -0.03365039  0.04533214  0.00000000       0.021
   0.07851757 -0.00647602  0.00000000       0.021
   0.04486718  0.06476020  0.00000000       0.021
  -0.03365039  0.07123622  0.00000000       0.021
  -0.07851757  0.08418826  0.00000000       0.021
   0.06730077 -0.12952040  0.00000000       0.021
  -0.03365039  0.09714030  0.00000000       0.021
  -0.05608398  0.07123622  0.00000000       0.021
   0.08973436 -0.11656836  0.00000000       0.021
  -0.03365039  0.12304438  0.00000000       0.021
  -0.03365039  0.05828418  0.00000000       0.021
  -0.06730077  0.00000000  0.00000000       0.010
   0.05608398  0.03238010  0.00000000       0.021
   0.00000000  0.06476020  0.00000000       0.010
   0.07851757  0.01942806  0.00000000       0.021
   0.02243359  0.07771224  0.00000000       0.021
  -0.05608398  0.05828418  0.00000000       0.021
  -0.07851757  0.11009234  0.00000000       0.021
   0.04486718 -0.11656836  0.00000000       0.021
  -0.05608398  0.08418826  0.00000000       0.021
  -0.05608398  0.09714030  0.00000000       0.021
   0.06730077 -0.10361632  0.00000000       0.010
   0.07851757  0.04533214  0.00000000       0.021
   0.00000000  0.09066428  0.00000000       0.010
  -0.07851757  0.13599642  0.00000000       0.021
   0.02243359 -0.10361632  0.00000000       0.010
 
 k-points in reciprocal lattice and weights: 0_1_Rh14_Ag2                            
   0.06250000  0.06250000  0.00000000       0.021
   0.00000000  0.06250000  0.00000000       0.010
   0.18750000  0.06250000  0.00000000       0.021
   0.12500000  0.18750000  0.00000000       0.021
  -0.06250000  0.12500000  0.00000000       0.021
   0.31250000  0.06250000  0.00000000       0.021
   0.25000000  0.31250000  0.00000000       0.021
  -0.06250000  0.25000000  0.00000000       0.021
   0.43750000  0.06250000  0.00000000       0.021
   0.37500000  0.43750000  0.00000000       0.021
  -0.06250000  0.37500000  0.00000000       0.021
  -0.43750000  0.06250000  0.00000000       0.021
   0.50000000 -0.43750000  0.00000000       0.021
  -0.06250000  0.50000000  0.00000000       0.021
  -0.31250000  0.06250000  0.00000000       0.021
  -0.37500000 -0.31250000  0.00000000       0.021
  -0.06250000 -0.37500000  0.00000000       0.021
  -0.18750000  0.06250000  0.00000000       0.021
  -0.25000000 -0.18750000  0.00000000       0.021
  -0.06250000 -0.25000000  0.00000000       0.021
  -0.06250000  0.06250000  0.00000000       0.021
  -0.12500000 -0.06250000  0.00000000       0.010
   0.18750000  0.18750000  0.00000000       0.021
   0.00000000  0.18750000  0.00000000       0.010
   0.31250000  0.18750000  0.00000000       0.021
   0.12500000  0.31250000  0.00000000       0.021
  -0.18750000  0.12500000  0.00000000       0.021
   0.43750000  0.18750000  0.00000000       0.021
   0.25000000  0.43750000  0.00000000       0.021
  -0.18750000  0.25000000  0.00000000       0.021
  -0.43750000  0.18750000  0.00000000       0.021
   0.37500000 -0.43750000  0.00000000       0.021
  -0.18750000  0.37500000  0.00000000       0.021
  -0.31250000  0.18750000  0.00000000       0.021
   0.50000000 -0.31250000  0.00000000       0.021
  -0.18750000  0.50000000  0.00000000       0.021
  -0.18750000  0.18750000  0.00000000       0.021
  -0.37500000 -0.18750000  0.00000000       0.010
   0.31250000  0.31250000  0.00000000       0.021
   0.00000000  0.31250000  0.00000000       0.010
   0.43750000  0.31250000  0.00000000       0.021
   0.12500000  0.43750000  0.00000000       0.021
  -0.31250000  0.12500000  0.00000000       0.021
  -0.43750000  0.31250000  0.00000000       0.021
   0.25000000 -0.43750000  0.00000000       0.021
  -0.31250000  0.25000000  0.00000000       0.021
  -0.31250000  0.31250000  0.00000000       0.021
   0.37500000 -0.31250000  0.00000000       0.010
   0.43750000  0.43750000  0.00000000       0.021
   0.00000000  0.43750000  0.00000000       0.010
  -0.43750000  0.43750000  0.00000000       0.021
   0.12500000 -0.43750000  0.00000000       0.010
 
 position of ions in fractional coordinates (direct lattice) 
   0.50000000  0.50000000  0.65707736
   0.16666667  0.16666667  0.70427414
   0.16666667  0.16666667  0.74510493
   0.33333333  0.33333333  0.34365395
   0.83333333  0.83333333  0.34365395
   0.33333333  0.83333333  0.34365395
   0.00000000  0.00000000  0.42182697
   0.50000000  0.00000000  0.42182697
   0.50000000  0.50000000  0.42182697
   0.16666667  0.16666667  0.50056673
   0.83333333  0.33333333  0.34365395
   0.66641521  0.66641521  0.50035150
   0.83380273  0.33309863  0.57885917
   0.33309863  0.33309863  0.57885917
   0.83333333  0.83333333  0.58022527
   0.33309863  0.83380273  0.57885917
   0.99963736  0.99963736  0.65980278
   0.50072527  0.99963736  0.65980278
   0.99963736  0.50072527  0.65980278
   0.66641521  0.16716958  0.50035150
   0.16716958  0.66641521  0.50035150
   0.00000000  0.50000000  0.42182697
 
 position of ions in cartesian coordinates  (Angst):
   4.17900108  2.41274740 19.12032066
   1.39300036  0.80424913 20.49370154
   1.39300036  0.80424913 21.68183826
   2.78600072  1.60849826 10.00000000
   6.96500179  4.02124566 10.00000000
   4.17900108  4.02124566 10.00000000
   0.00000000  0.00000000 12.27476006
   2.78600072  0.00000000 12.27476006
   4.17900108  2.41274740 12.27476006
   1.39300036  0.80424913 14.56601146
   5.57200144  1.60849826 10.00000000
   5.56989977  3.21578313 14.55974839
   5.57396305  1.60736573 16.84424635
   2.78403910  1.60736573 16.84424635
   6.96500179  4.02124566 16.88399842
   4.17900108  4.02351074 16.84424635
   8.35497123  4.82374489 19.19962764
   5.57503236  4.82374489 19.19962764
   6.96500179  2.41624720 19.19962764
   4.17900108  0.80667593 14.55974839
   2.78810239  3.21578313 14.55974839
   1.39300036  2.41274740 12.27476006
 


--------------------------------------------------------------------------------------------------------


 k-point  1 :   0.0625 0.0625 0.0000  plane waves:   11699
 k-point  2 :   0.0000 0.0625 0.0000  plane waves:   11699
 k-point  3 :   0.1875 0.0625 0.0000  plane waves:   11678
 k-point  4 :   0.1250 0.1875 0.0000  plane waves:   11678
 k-point  5 :  -0.0625 0.1250 0.0000  plane waves:   11678
 k-point  6 :   0.3125 0.0625 0.0000  plane waves:   11644
 k-point  7 :   0.2500 0.3125 0.0000  plane waves:   11644
 k-point  8 :  -0.0625 0.2500 0.0000  plane waves:   11644
 k-point  9 :   0.4375 0.0625 0.0000  plane waves:   11613
 k-point 10 :   0.3750 0.4375 0.0000  plane waves:   11613
 k-point 11 :  -0.0625 0.3750 0.0000  plane waves:   11613
 k-point 12 :  -0.4375 0.0625 0.0000  plane waves:   11584
 k-point 13 :   0.5000-0.4375 0.0000  plane waves:   11584
 k-point 14 :  -0.0625 0.5000 0.0000  plane waves:   11584
 k-point 15 :  -0.3125 0.0625 0.0000  plane waves:   11633
 k-point 16 :  -0.3750-0.3125 0.0000  plane waves:   11633
 k-point 17 :  -0.0625-0.3750 0.0000  plane waves:   11633
 k-point 18 :  -0.1875 0.0625 0.0000  plane waves:   11664
 k-point 19 :  -0.2500-0.1875 0.0000  plane waves:   11664
 k-point 20 :  -0.0625-0.2500 0.0000  plane waves:   11664
 k-point 21 :  -0.0625 0.0625 0.0000  plane waves:   11701
 k-point 22 :  -0.1250-0.0625 0.0000  plane waves:   11701
 k-point 23 :   0.1875 0.1875 0.0000  plane waves:   11669
 k-point 24 :   0.0000 0.1875 0.0000  plane waves:   11669
 k-point 25 :   0.3125 0.1875 0.0000  plane waves:   11655
 k-point 26 :   0.1250 0.3125 0.0000  plane waves:   11655
 k-point 27 :  -0.1875 0.1250 0.0000  plane waves:   11655
 k-point 28 :   0.4375 0.1875 0.0000  plane waves:   11637
 k-point 29 :   0.2500 0.4375 0.0000  plane waves:   11637
 k-point 30 :  -0.1875 0.2500 0.0000  plane waves:   11637
 k-point 31 :  -0.4375 0.1875 0.0000  plane waves:   11602
 k-point 32 :   0.3750-0.4375 0.0000  plane waves:   11602
 k-point 33 :  -0.1875 0.3750 0.0000  plane waves:   11602
 k-point 34 :  -0.3125 0.1875 0.0000  plane waves:   11602
 k-point 35 :   0.5000-0.3125 0.0000  plane waves:   11602
 k-point 36 :  -0.1875 0.5000 0.0000  plane waves:   11602
 k-point 37 :  -0.1875 0.1875 0.0000  plane waves:   11673
 k-point 38 :  -0.3750-0.1875 0.0000  plane waves:   11673
 k-point 39 :   0.3125 0.3125 0.0000  plane waves:   11649
 k-point 40 :   0.0000 0.3125 0.0000  plane waves:   11649
 k-point 41 :   0.4375 0.3125 0.0000  plane waves:   11619
 k-point 42 :   0.1250 0.4375 0.0000  plane waves:   11619
 k-point 43 :  -0.3125 0.1250 0.0000  plane waves:   11619
 k-point 44 :  -0.4375 0.3125 0.0000  plane waves:   11603
 k-point 45 :   0.2500-0.4375 0.0000  plane waves:   11603
 k-point 46 :  -0.3125 0.2500 0.0000  plane waves:   11603
 k-point 47 :  -0.3125 0.3125 0.0000  plane waves:   11606
 k-point 48 :   0.3750-0.3125 0.0000  plane waves:   11606
 k-point 49 :   0.4375 0.4375 0.0000  plane waves:   11610
 k-point 50 :   0.0000 0.4375 0.0000  plane waves:   11610
 k-point 51 :  -0.4375 0.4375 0.0000  plane waves:   11600
 k-point 52 :   0.1250-0.4375 0.0000  plane waves:   11600

 maximum and minimum number of plane-waves per node :      1694     1624

 maximum number of plane-waves:     11701
 maximum index in each direction: 
   IXMAX=    8   IYMAX=    8   IZMAX=   44
   IXMIN=   -8   IYMIN=   -8   IZMIN=  -44


 real space projection operators:
  total allocation   :       5807.11 KBytes
  max/ min on nodes  :        837.41        819.84


 parallel 3D FFT for wavefunctions:
    minimum data exchange during FFTs selected (reduces bandwidth)
 parallel 3D FFT for charge:
    minimum data exchange during FFTs selected (reduces bandwidth)


 total amount of memory used by VASP MPI-rank0    83270. kBytes
=======================================================================

   base      :      30000. kBytes
   nonlr-proj:       1868. kBytes
   fftplans  :       1543. kBytes
   grid      :       3152. kBytes
   one-center:         62. kBytes
   wavefun   :      46645. kBytes
 
     INWAV:  cpu time    0.0000: real time    0.0000
 Broyden mixing: mesh for mixing (old mesh)
   NGX = 17   NGY = 17   NGZ = 89
  (NGX  = 56   NGY  = 56   NGZ  =280)
  gives a total of  25721 points

 initial charge density was supplied:
 charge density of overlapping atoms calculated
 number of electron     210.0000000 magnetization 
 keeping initial charge density in first step


--------------------------------------------------------------------------------------------------------


 Maximum index for non-local projection operator          325
 Maximum index for augmentation-charges          427 (set IRDMAX)


--------------------------------------------------------------------------------------------------------


 First call to EWALD:  gamma=   0.192
 Maximum number of real-space cells 5x 5x 1
 Maximum number of reciprocal cells 2x 2x 8

    FEWALD:  cpu time    0.0018: real time    0.0018


--------------------------------------- Iteration      1(   1)  ---------------------------------------


    POTLOK:  cpu time    0.0207: real time    0.0332
    SETDIJ:  cpu time    0.0027: real time    0.0027
     EDDAV:  cpu time   12.0078: real time   12.0089
       DOS:  cpu time    0.0075: real time    0.0075
    --------------------------------------------
      LOOP:  cpu time   12.0387: real time   12.0523

 eigenvalue-minimisations  : 13512
 total energy-change (2. order) : 0.1166055E+04  (-0.7979947E+04)
 number of electron     210.0000000 magnetization 
 augmentation part      210.0000000 magnetization 

 Free energy of the ion-electron system (eV)
  ---------------------------------------------------
  alpha Z        PSCENC =       363.90125391
  Ewald energy   TEWEN  =    107040.19307817
  -Hartree energ DENC   =   -124490.53596421
  -exchange      EXHF   =         0.00000000
  -V(xc)+E(xc)   XCENC  =      -516.56807585
  PAW double counting   =     16585.88916417   -15380.20568694
  entropy T*S    EENTRO =        -0.00715976
  eigenvalues    EBANDS =       755.59698872
  atomic energy  EATOM  =     16807.79110334
  Solvation  Ediel_sol  =         0.00000000
  ---------------------------------------------------
  free energy    TOTEN  =      1166.05470155 eV

  energy without entropy =     1166.06186131  energy(sigma->0) =     1166.05708813


--------------------------------------------------------------------------------------------------------




--------------------------------------- Iteration      1(   2)  ---------------------------------------


     EDDAV:  cpu time   13.2875: real time   13.2920
       DOS:  cpu time    0.0079: real time    0.0079
    --------------------------------------------
      LOOP:  cpu time   13.2955: real time   13.2999

 eigenvalue-minimisations  : 15200
 total energy-change (2. order) :-0.1215477E+04  (-0.1142323E+04)
 number of electron     210.0000000 magnetization 
 augmentation part      210.0000000 magnetization 

 Free energy of the ion-electron system (eV)
  ---------------------------------------------------
  alpha Z        PSCENC =       363.90125391
  Ewald energy   TEWEN  =    107040.19307817
  -Hartree energ DENC   =   -124490.53596421
  -exchange      EXHF   =         0.00000000
  -V(xc)+E(xc)   XCENC  =      -516.56807585
  PAW double counting   =     16585.88916417   -15380.20568694
  entropy T*S    EENTRO =         0.02319967
  eigenvalues    EBANDS =      -459.91045534
  atomic energy  EATOM  =     16807.79110334
  Solvation  Ediel_sol  =         0.00000000
  ---------------------------------------------------
  free energy    TOTEN  =       -49.42238308 eV

  energy without entropy =      -49.44558275  energy(sigma->0) =      -49.43011630


--------------------------------------------------------------------------------------------------------




--------------------------------------- Iteration      1(   3)  ---------------------------------------


     EDDAV:  cpu time   15.1581: real time   15.1807
       DOS:  cpu time    0.0086: real time    0.0086
    --------------------------------------------
      LOOP:  cpu time   15.1666: real time   15.1893

 eigenvalue-minimisations  : 15160
 total energy-change (2. order) :-0.7118452E+02  (-0.6514288E+02)
 number of electron     210.0000000 magnetization 
 augmentation part      210.0000000 magnetization 

 Free energy of the ion-electron system (eV)
  ---------------------------------------------------
  alpha Z        PSCENC =       363.90125391
  Ewald energy   TEWEN  =    107040.19307817
  -Hartree energ DENC   =   -124490.53596421
  -exchange      EXHF   =         0.00000000
  -V(xc)+E(xc)   XCENC  =      -516.56807585
  PAW double counting   =     16585.88916417   -15380.20568694
  entropy T*S    EENTRO =        -0.25121728
  eigenvalues    EBANDS =      -530.82055911
  atomic energy  EATOM  =     16807.79110334
  Solvation  Ediel_sol  =         0.00000000
  ---------------------------------------------------
  free energy    TOTEN  =      -120.60690380 eV

  energy without entropy =     -120.35568652  energy(sigma->0) =     -120.52316471


--------------------------------------------------------------------------------------------------------




--------------------------------------- Iteration      1(   4)  ---------------------------------------


     EDDAV:  cpu time   15.4818: real time   15.4890
       DOS:  cpu time    0.0087: real time    0.0087
    --------------------------------------------
      LOOP:  cpu time   15.4905: real time   15.4977

 eigenvalue-minimisations  : 15576
 total energy-change (2. order) :-0.2266309E+01  (-0.2226416E+01)
 number of electron     210.0000000 magnetization 
 augmentation part      210.0000000 magnetization 

 Free energy of the ion-electron system (eV)
  ---------------------------------------------------
  alpha Z        PSCENC =       363.90125391
  Ewald energy   TEWEN  =    107040.19307817
  -Hartree energ DENC   =   -124490.53596421
  -exchange      EXHF   =         0.00000000
  -V(xc)+E(xc)   XCENC  =      -516.56807585
  PAW double counting   =     16585.88916417   -15380.20568694
  entropy T*S    EENTRO =        -0.25652422
  eigenvalues    EBANDS =      -533.08156103
  atomic energy  EATOM  =     16807.79110334
  Solvation  Ediel_sol  =         0.00000000
  ---------------------------------------------------
  free energy    TOTEN  =      -122.87321266 eV

  energy without entropy =     -122.61668844  energy(sigma->0) =     -122.78770459


--------------------------------------------------------------------------------------------------------




--------------------------------------- Iteration      1(   5)  ---------------------------------------


     EDDAV:  cpu time   15.7599: real time   15.7837
       DOS:  cpu time    0.0086: real time    0.0086
    CHARGE:  cpu time    0.5987: real time    0.5987
    MIXING:  cpu time    0.0011: real time    0.0011
    --------------------------------------------
      LOOP:  cpu time   16.3682: real time   16.3921

 eigenvalue-minimisations  : 15856
 total energy-change (2. order) :-0.8648537E-01  (-0.8642897E-01)
 number of electron     209.9999797 magnetization 
 augmentation part       81.4489367 magnetization 

 Broyden mixing:
  rms(total) = 0.30904E+01    rms(broyden)= 0.30897E+01
  rms(prec ) = 0.31405E+01
  weight for this iteration     100.00

 Free energy of the ion-electron system (eV)
  ---------------------------------------------------
  alpha Z        PSCENC =       363.90125391
  Ewald energy   TEWEN  =    107040.19307817
  -Hartree energ DENC   =   -124490.53596421
  -exchange      EXHF   =         0.00000000
  -V(xc)+E(xc)   XCENC  =      -516.56807585
  PAW double counting   =     16585.88916417   -15380.20568694
  entropy T*S    EENTRO =        -0.25674829
  eigenvalues    EBANDS =      -533.16782233
  atomic energy  EATOM  =     16807.79110334
  Solvation  Ediel_sol  =         0.00000000
  ---------------------------------------------------
  free energy    TOTEN  =      -122.95969803 eV

  energy without entropy =     -122.70294973  energy(sigma->0) =     -122.87411526


--------------------------------------------------------------------------------------------------------




--------------------------------------- Iteration      1(   6)  ---------------------------------------


    POTLOK:  cpu time    0.0223: real time    0.0224
    SETDIJ:  cpu time    0.0028: real time    0.0028
     EDDAV:  cpu time   15.1115: real time   15.1171
       DOS:  cpu time    0.0092: real time    0.0092
    CHARGE:  cpu time    0.5968: real time    0.6028
    MIXING:  cpu time    0.0013: real time    0.0013
    --------------------------------------------
      LOOP:  cpu time   15.7439: real time   15.7556

 eigenvalue-minimisations  : 14920
 total energy-change (2. order) : 0.6464692E+00  (-0.3573785E+01)
 number of electron     209.9999787 magnetization 
 augmentation part       85.2841075 magnetization 

 Broyden mixing:
  rms(total) = 0.26202E+01    rms(broyden)= 0.26196E+01
  rms(prec ) = 0.33289E+01
  weight for this iteration     100.00

 eigenvalues of (default mixing * dielectric matrix)
  average eigenvalue GAMMA=   0.6914
  0.6914

 Free energy of the ion-electron system (eV)
  ---------------------------------------------------
  alpha Z        PSCENC =       363.90125391
  Ewald energy   TEWEN  =    107040.19307817
  -Hartree energ DENC   =   -124368.35554790
  -exchange      EXHF   =         0.00000000
  -V(xc)+E(xc)   XCENC  =      -519.80220092
  PAW double counting   =     17817.87528148   -16636.98984062
  entropy T*S    EENTRO =        -0.18646616
  eigenvalues    EBANDS =      -626.73989008
  atomic energy  EATOM  =     16807.79110334
  Solvation  Ediel_sol  =         0.00000000
  ---------------------------------------------------
  free energy    TOTEN  =      -122.31322879 eV

  energy without entropy =     -122.12676262  energy(sigma->0) =     -122.25107340


--------------------------------------------------------------------------------------------------------




--------------------------------------- Iteration      1(   7)  ---------------------------------------


    POTLOK:  cpu time    0.0222: real time    0.0231
    SETDIJ:  cpu time    0.0030: real time    0.0030
     EDDAV:  cpu time   16.6556: real time   16.6598
       DOS:  cpu time    0.0087: real time    0.0087
    CHARGE:  cpu time    0.5940: real time    0.5944
    MIXING:  cpu time    0.0011: real time    0.0011
    --------------------------------------------
      LOOP:  cpu time   17.2846: real time   17.2900

 eigenvalue-minimisations  : 16952
 total energy-change (2. order) :-0.4946221E+02  (-0.5646262E+01)
 number of electron     209.9999787 magnetization 
 augmentation part       81.0647383 magnetization 

 Broyden mixing:
  rms(total) = 0.57027E+01    rms(broyden)= 0.57020E+01
  rms(prec ) = 0.86163E+01
  weight for this iteration     100.00

 eigenvalues of (default mixing * dielectric matrix)
  average eigenvalue GAMMA=   0.5848
  1.0680  0.1016

 Free energy of the ion-electron system (eV)
  ---------------------------------------------------
  alpha Z        PSCENC =       363.90125391
  Ewald energy   TEWEN  =    107040.19307817
  -Hartree energ DENC   =   -124349.01723344
  -exchange      EXHF   =         0.00000000
  -V(xc)+E(xc)   XCENC  =      -520.18042979
  PAW double counting   =     18189.69091989   -17013.11316503
  entropy T*S    EENTRO =        -0.00458911
  eigenvalues    EBANDS =      -691.03637522
  atomic energy  EATOM  =     16807.79110334
  Solvation  Ediel_sol  =         0.00000000
  ---------------------------------------------------
  free energy    TOTEN  =      -171.77543728 eV

  energy without entropy =     -171.77084817  energy(sigma->0) =     -171.77390758


--------------------------------------------------------------------------------------------------------




--------------------------------------- Iteration      1(   8)  ---------------------------------------


    POTLOK:  cpu time    0.0235: real time    0.0236
    SETDIJ:  cpu time    0.0031: real time    0.0031
     EDDAV:  cpu time   16.6315: real time   16.6433
       DOS:  cpu time    0.0085: real time    0.0085
    CHARGE:  cpu time    0.5965: real time    0.5965
    MIXING:  cpu time    0.0012: real time    0.0012
    --------------------------------------------
      LOOP:  cpu time   17.2644: real time   17.2763

 eigenvalue-minimisations  : 17032
 total energy-change (2. order) : 0.3860617E+02  (-0.6614737E+01)
 number of electron     209.9999803 magnetization 
 augmentation part       84.8915162 magnetization 

 Broyden mixing:
  rms(total) = 0.33621E+01    rms(broyden)= 0.33614E+01
  rms(prec ) = 0.38696E+01
  weight for this iteration     100.00

 eigenvalues of (default mixing * dielectric matrix)
  average eigenvalue GAMMA=   0.5984
  1.4313  0.2387  0.1251

 Free energy of the ion-electron system (eV)
  ---------------------------------------------------
  alpha Z        PSCENC =       363.90125391
  Ewald energy   TEWEN  =    107040.19307817
  -Hartree energ DENC   =   -124406.53631327
  -exchange      EXHF   =         0.00000000
  -V(xc)+E(xc)   XCENC  =      -520.92346043
  PAW double counting   =     18699.80140626   -17532.52873572
  entropy T*S    EENTRO =         0.01300630
  eigenvalues    EBANDS =      -584.88060164
  atomic energy  EATOM  =     16807.79110334
  Solvation  Ediel_sol  =         0.00000000
  ---------------------------------------------------
  free energy    TOTEN  =      -133.16926308 eV

  energy without entropy =     -133.18226938  energy(sigma->0) =     -133.17359851


--------------------------------------------------------------------------------------------------------




--------------------------------------- Iteration      1(   9)  ---------------------------------------


    POTLOK:  cpu time    0.0209: real time    0.0215
    SETDIJ:  cpu time    0.0029: real time    0.0029
     EDDAV:  cpu time   15.1196: real time   15.1364
       DOS:  cpu time    0.0089: real time    0.0089
    CHARGE:  cpu time    0.5950: real time    0.5955
    MIXING:  cpu time    0.0013: real time    0.0013
    --------------------------------------------
      LOOP:  cpu time   15.7485: real time   15.7665

 eigenvalue-minimisations  : 14888
 total energy-change (2. order) : 0.8936236E+01  (-0.3929748E+01)
 number of electron     209.9999778 magnetization 
 augmentation part       85.6491346 magnetization 

 Broyden mixing:
  rms(total) = 0.23699E+01    rms(broyden)= 0.23695E+01
  rms(prec ) = 0.29735E+01
  weight for this iteration     100.00

 eigenvalues of (default mixing * dielectric matrix)
  average eigenvalue GAMMA=   0.5626
  1.4276  0.4988  0.2145  0.1094

 Free energy of the ion-electron system (eV)
  ---------------------------------------------------
  alpha Z        PSCENC =       363.90125391
  Ewald energy   TEWEN  =    107040.19307817
  -Hartree energ DENC   =   -124337.99418312
  -exchange      EXHF   =         0.00000000
  -V(xc)+E(xc)   XCENC  =      -521.02026183
  PAW double counting   =     19194.12802268   -18031.86860360
  entropy T*S    EENTRO =        -0.22541319
  eigenvalues    EBANDS =      -639.13802309
  atomic energy  EATOM  =     16807.79110334
  Solvation  Ediel_sol  =         0.00000000
  ---------------------------------------------------
  free energy    TOTEN  =      -124.23302673 eV

  energy without entropy =     -124.00761355  energy(sigma->0) =     -124.15788900


--------------------------------------------------------------------------------------------------------




--------------------------------------- Iteration      1(  10)  ---------------------------------------


    POTLOK:  cpu time    0.0218: real time    0.0219
    SETDIJ:  cpu time    0.0029: real time    0.0029
     EDDAV:  cpu time   14.7170: real time   14.7307
       DOS:  cpu time    0.0089: real time    0.0089
    CHARGE:  cpu time    0.5967: real time    0.5968
    MIXING:  cpu time    0.0016: real time    0.0016
    --------------------------------------------
      LOOP:  cpu time   15.3489: real time   15.3628

 eigenvalue-minimisations  : 14424
 total energy-change (2. order) : 0.6768445E+01  (-0.1362096E+01)
 number of electron     209.9999794 magnetization 
 augmentation part       85.0447998 magnetization 

 Broyden mixing:
  rms(total) = 0.98161E+00    rms(broyden)= 0.98116E+00
  rms(prec ) = 0.12612E+01
  weight for this iteration     100.00

 eigenvalues of (default mixing * dielectric matrix)
  average eigenvalue GAMMA=   0.6264
  1.6567  0.5904  0.5904  0.1826  0.1119

 Free energy of the ion-electron system (eV)
  ---------------------------------------------------
  alpha Z        PSCENC =       363.90125391
  Ewald energy   TEWEN  =    107040.19307817
  -Hartree energ DENC   =   -124442.96009278
  -exchange      EXHF   =         0.00000000
  -V(xc)+E(xc)   XCENC  =      -520.85362772
  PAW double counting   =     19394.23607411   -18231.90657469
  entropy T*S    EENTRO =        -0.24379468
  eigenvalues    EBANDS =      -527.62200150
  atomic energy  EATOM  =     16807.79110334
  Solvation  Ediel_sol  =         0.00000000
  ---------------------------------------------------
  free energy    TOTEN  =      -117.46458184 eV

  energy without entropy =     -117.22078716  energy(sigma->0) =     -117.38331695


--------------------------------------------------------------------------------------------------------




--------------------------------------- Iteration      1(  11)  ---------------------------------------


    POTLOK:  cpu time    0.0213: real time    0.0227
    SETDIJ:  cpu time    0.0029: real time    0.0029
     EDDAV:  cpu time   14.9355: real time   14.9456
       DOS:  cpu time    0.0091: real time    0.0091
    CHARGE:  cpu time    0.5934: real time    0.5934
    MIXING:  cpu time    0.0015: real time    0.0015
    --------------------------------------------
      LOOP:  cpu time   15.5637: real time   15.5751

 eigenvalue-minimisations  : 14344
 total energy-change (2. order) :-0.3123737E+00  (-0.8332058E+00)
 number of electron     209.9999785 magnetization 
 augmentation part       85.1799012 magnetization 

 Broyden mixing:
  rms(total) = 0.12447E+01    rms(broyden)= 0.12444E+01
  rms(prec ) = 0.13806E+01
  weight for this iteration     100.00

 eigenvalues of (default mixing * dielectric matrix)
  average eigenvalue GAMMA=   0.5624
  1.7709  0.5965  0.4711  0.1120  0.2477  0.1764

 Free energy of the ion-electron system (eV)
  ---------------------------------------------------
  alpha Z        PSCENC =       363.90125391
  Ewald energy   TEWEN  =    107040.19307817
  -Hartree energ DENC   =   -124417.58983683
  -exchange      EXHF   =         0.00000000
  -V(xc)+E(xc)   XCENC  =      -520.55690565
  PAW double counting   =     19652.48365797   -18491.28713395
  entropy T*S    EENTRO =        -0.06831516
  eigenvalues    EBANDS =      -552.64385738
  atomic energy  EATOM  =     16807.79110334
  Solvation  Ediel_sol  =         0.00000000
  ---------------------------------------------------
  free energy    TOTEN  =      -117.77695558 eV

  energy without entropy =     -117.70864042  energy(sigma->0) =     -117.75418386


--------------------------------------------------------------------------------------------------------




--------------------------------------- Iteration      1(  12)  ---------------------------------------


    POTLOK:  cpu time    0.0214: real time    0.0215
    SETDIJ:  cpu time    0.0029: real time    0.0029
     EDDAV:  cpu time   14.4619: real time   14.4737
       DOS:  cpu time    0.0090: real time    0.0090
    CHARGE:  cpu time    0.5967: real time    0.5968
    MIXING:  cpu time    0.0014: real time    0.0014
    --------------------------------------------
      LOOP:  cpu time   15.0933: real time   15.1053

 eigenvalue-minimisations  : 14056
 total energy-change (2. order) : 0.1262600E+01  (-0.2285563E+00)
 number of electron     209.9999791 magnetization 
 augmentation part       85.1171980 magnetization 

 Broyden mixing:
  rms(total) = 0.42311E+00    rms(broyden)= 0.42291E+00
  rms(prec ) = 0.44884E+00
  weight for this iteration     100.00

 eigenvalues of (default mixing * dielectric matrix)
  average eigenvalue GAMMA=   0.6599
  2.0715  0.6660  0.6660  0.6849  0.1120  0.1794  0.2393

 Free energy of the ion-electron system (eV)
  ---------------------------------------------------
  alpha Z        PSCENC =       363.90125391
  Ewald energy   TEWEN  =    107040.19307817
  -Hartree energ DENC   =   -124437.48766890
  -exchange      EXHF   =         0.00000000
  -V(xc)+E(xc)   XCENC  =      -520.54112249
  PAW double counting   =     19743.48909927   -18583.12833512
  entropy T*S    EENTRO =        -0.32396294
  eigenvalues    EBANDS =      -530.40780085
  atomic energy  EATOM  =     16807.79110334
  Solvation  Ediel_sol  =         0.00000000
  ---------------------------------------------------
  free energy    TOTEN  =      -116.51435560 eV

  energy without entropy =     -116.19039266  energy(sigma->0) =     -116.40636796


--------------------------------------------------------------------------------------------------------




--------------------------------------- Iteration      1(  13)  ---------------------------------------


    POTLOK:  cpu time    0.0206: real time    0.0211
    SETDIJ:  cpu time    0.0029: real time    0.0029
     EDDAV:  cpu time   14.6350: real time   14.6359
       DOS:  cpu time    0.0089: real time    0.0089
    CHARGE:  cpu time    0.5909: real time    0.5909
    MIXING:  cpu time    0.0015: real time    0.0015
    --------------------------------------------
      LOOP:  cpu time   15.2597: real time   15.2612

 eigenvalue-minimisations  : 14280
 total energy-change (2. order) :-0.1414365E+00  (-0.1539957E+00)
 number of electron     209.9999790 magnetization 
 augmentation part       85.2528309 magnetization 

 Broyden mixing:
  rms(total) = 0.53115E+00    rms(broyden)= 0.53099E+00
  rms(prec ) = 0.58531E+00
  weight for this iteration     100.00

 eigenvalues of (default mixing * dielectric matrix)
  average eigenvalue GAMMA=   0.6488
  2.2286  0.8441  0.8441  0.4875  0.3011  0.1120  0.1863  0.1863

 Free energy of the ion-electron system (eV)
  ---------------------------------------------------
  alpha Z        PSCENC =       363.90125391
  Ewald energy   TEWEN  =    107040.19307817
  -Hartree energ DENC   =   -124427.66387225
  -exchange      EXHF   =         0.00000000
  -V(xc)+E(xc)   XCENC  =      -520.50896794
  PAW double counting   =     19880.02640504   -18721.19443651
  entropy T*S    EENTRO =        -0.22496250
  eigenvalues    EBANDS =      -538.97539334
  atomic energy  EATOM  =     16807.79110334
  Solvation  Ediel_sol  =         0.00000000
  ---------------------------------------------------
  free energy    TOTEN  =      -116.65579208 eV

  energy without entropy =     -116.43082958  energy(sigma->0) =     -116.58080458


--------------------------------------------------------------------------------------------------------




[...]
      7      -4.5525      2.00000
      8      -4.2001      2.00000
      9      -4.1262      2.00000
     10      -4.0416      2.00000
     11      -3.9278      2.00000
     12      -3.8359      2.00000
     13      -3.8205      2.00000
     14      -3.7778      2.00000
     15      -3.7467      2.00000
     16      -3.7142      2.00000
     17      -3.6607      2.00000
     18      -3.6106      2.00000
     19      -3.5959      2.00000
     20      -3.5395      2.00000
     21      -3.5018      2.00000
     22      -3.4812      2.00000
     23      -3.4130      2.00000
     24      -3.3850      2.00000
     25      -3.2972      2.00000
     26      -3.2793      2.00000
     27      -3.2484      2.00000
     28      -3.1894      2.00000
     29      -3.1639      2.00000
     30      -3.1327      2.00000
     31      -3.1121      2.00000
     32      -3.0392      2.00000
     33      -3.0191      2.00000
     34      -3.0050      2.00000
     35      -2.9447      2.00000
     36      -2.9213      2.00000
     37      -2.8830      2.00000
     38      -2.7939      2.00000
     39      -2.7415      2.00000
     40      -2.7093      2.00000
     41      -2.6658      2.00000
     42      -2.6283      2.00000
     43      -2.6011      2.00000
     44      -2.5815      2.00000
     45      -2.4880      2.00000
     46      -2.3815      2.00000
     47      -2.3458      2.00000
     48      -2.3095      2.00000
     49      -2.2378      2.00000
     50      -2.2270      2.00000
     51      -2.1920      2.00000
     52      -2.1577      2.00000
     53      -2.1136      2.00000
     54      -2.0616      2.00000
     55      -2.0468      2.00000
     56      -1.9622      2.00000
     57      -1.9383      2.00000
     58      -1.9034      2.00000
     59      -1.8459      2.00000
     60      -1.8378      2.00000
     61      -1.8084      2.00000
     62      -1.7689      2.00000
     63      -1.7507      2.00000
     64      -1.7178      2.00000
     65      -1.6607      2.00000
     66      -1.6164      2.00000
     67      -1.6021      2.00000
     68      -1.5811      2.00000
     69      -1.5080      2.00000
     70      -1.4700      2.00000
     71      -1.4337      2.00000
     72      -1.3497      2.00000
     73      -1.2549      2.00000
     74      -1.2232      2.00000
     75      -1.2103      2.00000
     76      -1.1591      2.00000
     77      -1.1325      2.00000
     78      -1.0988      2.00000
     79      -1.0364      2.00000
     80      -1.0180      2.00001
     81      -0.9461      2.00002
     82      -0.9101      2.00004
     83      -0.8879      2.00005
     84      -0.8530      2.00009
     85      -0.8160      2.00015
     86      -0.7053      2.00067
     87      -0.6856      2.00085
     88      -0.6424      2.00144
     89      -0.6028      2.00226
     90      -0.5602      2.00360
     91      -0.5429      2.00431
     92      -0.4868      2.00751
     93      -0.4557      2.01001
     94      -0.4181      2.01387
     95      -0.2880      2.03553
     96      -0.2755      2.03824
     97      -0.2364      2.04715
     98      -0.1772      2.06034
     99      -0.1108      2.07019
    100      -0.0829      2.07080
    101       0.0814      1.97731
    102       0.1551      1.84917
    103       0.1988      1.74134
    104       0.2594      1.55372
    105       0.2828      1.47026
    106       0.3065      1.38122
    107       0.4080      0.96310
    108       0.4436      0.81346
    109       0.4704      0.70426
    110       0.5905      0.28440
    111       1.2098     -0.01467
    112       1.6436     -0.00010
    113       1.7654     -0.00002
    114       1.7978     -0.00001
    115       2.2824     -0.00000
    116       2.9847     -0.00000
    117       3.3596     -0.00000
    118       3.5333     -0.00000
    119       3.9217     -0.00000
    120       4.1841     -0.00000
    121       4.6312     -0.00000
    122       4.7867     -0.00000
    123       5.0986     -0.00000
    124       5.4201     -0.00000
    125       5.5720     -0.00000
    126       6.1177     -0.00000
    127       6.7859     -0.00000
    128       7.2469     -0.00000


--------------------------------------------------------------------------------------------------------


 soft charge-density along one line, spin component           1
         0         1         2         3         4         5         6         7         8         9
 total charge-density along one line
 
 pseudopotential strength for first ion, spin component:           1
 -7.974   0.000  -0.000  -0.005  -0.000  -8.044   0.000  -0.000
  0.000  -7.961  -0.000   0.000  -0.005   0.000  -8.032  -0.000
 -0.000  -0.000  -7.965  -0.000  -0.000  -0.000  -0.000  -8.035
 -0.005   0.000  -0.000  -7.961  -0.000  -0.005   0.000  -0.000
 -0.000  -0.005  -0.000  -0.000  -7.973  -0.000  -0.005  -0.000
 -8.044   0.000  -0.000  -0.005  -0.000  -8.086   0.000  -0.000
  0.000  -8.032  -0.000   0.000  -0.005   0.000  -8.075  -0.000
 -0.000  -0.000  -8.035  -0.000  -0.000  -0.000  -0.000  -8.078
 -0.005   0.000  -0.000  -8.032  -0.000  -0.005   0.000  -0.000
 -0.000  -0.005  -0.000  -0.000  -8.044  -0.000  -0.004  -0.000
 -0.000   0.000  -0.006  -0.000  -0.000  -0.000   0.000  -0.005
 -0.000   0.000  -0.009  -0.000  -0.000  -0.000   0.000  -0.009
  0.000   0.017  -0.000  -0.000  -0.001   0.000   0.016  -0.000
 -0.000   0.000   0.019  -0.000   0.000  -0.000   0.000   0.018
  0.000  -0.000   0.000   0.017  -0.000   0.000  -0.000   0.000
  0.000   0.020  -0.000  -0.000  -0.001   0.000   0.019  -0.000
 -0.000   0.001   0.024  -0.000   0.000  -0.000   0.001   0.022
  0.000  -0.000   0.000   0.020  -0.000  -0.000  -0.000   0.000
 total augmentation occupancy for first ion, spin component:           1
  3.871   0.000   0.000  -0.118   0.000  -1.933   0.000   0.000   0.045   0.000   0.000   0.000   0.000   0.000   0.049   0.000
  0.000   3.516  -0.001   0.000  -0.114   0.000  -1.429   0.001   0.000   0.042  -0.003   0.000   0.137  -0.001   0.000   0.000
  0.000  -0.001   3.795   0.000  -0.002   0.000   0.001  -1.760   0.000   0.001   0.554  -0.074  -0.000   0.222   0.000  -0.000
 -0.118   0.000   0.000   3.514   0.000   0.045   0.000   0.000  -1.428   0.000   0.000   0.000   0.000   0.000   0.137   0.000
  0.000  -0.114  -0.002   0.000   3.877   0.000   0.042   0.001   0.000  -1.937  -0.001  -0.000   0.050  -0.000   0.000  -0.004
 -1.933   0.000   0.000   0.045   0.000   1.940   0.000   0.000   0.014   0.000   0.000   0.000   0.000   0.000  -0.044   0.000
  0.000  -1.429   0.001   0.000   0.042   0.000   1.309  -0.001   0.000   0.016   0.002   0.000  -0.140   0.000   0.000   0.009
  0.000   0.001  -1.760   0.000   0.001   0.000  -0.001   1.685   0.000  -0.001  -0.532   0.085   0.000  -0.247   0.000  -0.000
  0.045   0.000   0.000  -1.428   0.000   0.014   0.000   0.000   1.308   0.000   0.000   0.000   0.000   0.000  -0.140   0.000
  0.000   0.042   0.001   0.000  -1.937   0.000   0.016  -0.001   0.000   1.943   0.001   0.000  -0.044  -0.000   0.000   0.003
  0.000  -0.003   0.554   0.000  -0.001   0.000   0.002  -0.532   0.000   0.001   2.227  -0.408  -0.001  -0.163   0.000   0.000
  0.000   0.000  -0.074   0.000  -0.000   0.000   0.000   0.085   0.000   0.000  -0.408   0.082  -0.000   0.040   0.000   0.000
  0.000   0.137  -0.000   0.000   0.050   0.000  -0.140   0.000   0.000  -0.044  -0.001  -0.000   0.186  -0.000   0.000  -0.011
  0.000  -0.001   0.222   0.000  -0.000   0.000   0.000  -0.247   0.000  -0.000  -0.163   0.040  -0.000   0.109   0.000   0.000
  0.049   0.000   0.000   0.137   0.000  -0.044   0.000   0.000  -0.140   0.000   0.000   0.000   0.000   0.000   0.186   0.000
  0.000   0.000  -0.000   0.000  -0.004   0.000   0.009  -0.000   0.000   0.003   0.000   0.000  -0.011   0.000   0.000   0.001
  0.000   0.000   0.001   0.000   0.000   0.000  -0.000   0.012   0.000   0.000   0.016  -0.004   0.000  -0.007   0.000   0.000
 -0.003   0.000   0.000   0.000   0.000   0.003   0.000   0.000   0.009   0.000   0.000   0.000   0.000   0.000  -0.011   0.000


------------------------ aborting loop because EDIFF is reached ----------------------------------------


 


 total charge     
 
# of ion       s       p       d       tot
------------------------------------------
    1        0.427   0.277   9.187   9.890
    2        0.911   1.587   0.000   2.498
    3        1.666   3.534   0.000   5.200
    4        0.455   0.328   8.476   9.259
    5        0.454   0.329   8.477   9.259
    6        0.449   0.323   8.484   9.256
    7        0.469   0.448   8.439   9.356
    8        0.470   0.447   8.434   9.351
    9        0.469   0.448   8.437   9.354
   10        0.471   0.442   8.443   9.356
   11        0.455   0.328   8.477   9.260
   12        0.471   0.439   8.438   9.348
   13        0.457   0.421   8.468   9.346
   14        0.457   0.420   8.473   9.350
   15        0.468   0.417   8.471   9.355
   16        0.459   0.418   8.474   9.351
   17        0.464   0.420   8.567   9.451
   18        0.464   0.420   8.568   9.452
   19        0.464   0.420   8.567   9.451
   20        0.466   0.432   8.450   9.348
   21        0.471   0.439   8.442   9.352
   22        0.424   0.403   7.295   8.122
--------------------------------------------------
tot         11.761  13.140 169.065 193.966
 
    CHARGE:  cpu time    0.4991: real time    0.4993
    FORLOC:  cpu time    0.0044: real time    0.0045
    FORNL :  cpu time    2.2205: real time    2.2213
    STRESS:  cpu time    6.4303: real time    6.4307
    FORCOR:  cpu time    0.0219: real time    0.0219
    FORHAR:  cpu time    0.0081: real time    0.0081
    MIXING:  cpu time    0.0037: real time    0.0037
    OFIELD:  cpu time    0.0000: real time    0.0000

  FORCE on cell =-STRESS in cart. coord.  units (eV):
  Direction    XX          YY          ZZ          XY          YZ          ZX
  --------------------------------------------------------------------------------------
  Alpha Z   363.90125   363.90125   363.90125
  Ewald  118174.23967118174.49336************     0.00000     0.05325     0.00000
  Hartree122576.67228122576.71374************     0.00000     0.16838    -0.00000
  E(xc)   -1086.71977 -1086.71368 -1089.80791     0.00012    -0.02174     0.00001
  Local  ************************246435.18267     0.00205    -0.57337    -0.00017
  n-local  -110.11168  -110.14137  -130.35678     2.73408     0.04944    -0.23297
  augment  1486.56596  1486.51608  1505.63690    -0.00099     0.14304     0.00004
  Kinetic  2888.04409  2887.85357  2901.80602     1.87248     0.25324    -0.57837
  Fock        0.00000     0.00000     0.00000     0.00000     0.00000     0.00000
  -------------------------------------------------------------------------------------
  Total     -10.01821   -10.05895    -6.30707     0.00000     0.07224     0.00000
  in kB     -20.51489   -20.59830   -12.91535     0.00000     0.14793     0.00000
  external pressure =      -18.01 kB  Pullay stress =        0.00 kB


 VOLUME and BASIS-vectors are now :
 -----------------------------------------------------------------------------
  energy-cutoff  :      350.00
  volume of cell :      782.41
      direct lattice vectors                 reciprocal lattice vectors
     5.572001436  0.000000000  0.000000000     0.179468726 -0.103616317  0.000000000
     2.786000718  4.825494793  0.000000000     0.000000000  0.207232635  0.000000000
     0.000000000  0.000000000 29.099040242     0.000000000  0.000000000  0.034365395

  length of vectors
     5.572001436  5.572001436 29.099040242     0.207232635  0.207232635  0.034365395


 FORCES acting on ions
    electron-ion (+dipol)            ewald-force                    non-local-force                 convergence-correction
 -----------------------------------------------------------------------------------------------
   0.176E-05 -.566E-01 -.328E+04   -.152E-10 -.882E-11 0.327E+04   0.000E+00 0.498E-01 0.289E+01   0.131E-08 -.183E-03 -.606E-02
   -.246E-03 0.696E-02 -.130E+04   0.336E-11 0.105E-02 0.129E+04   -.217E-18 -.466E-02 0.108E+02   0.238E-08 -.900E-04 -.441E-02
   0.176E-03 0.986E-02 -.228E+04   0.753E-12 0.335E-03 0.233E+04   -.867E-18 -.141E-01 -.569E+02   0.718E-09 -.354E-04 -.613E-02
   0.498E+01 -.282E+01 0.332E+04   -.519E+01 0.296E+01 -.332E+04   0.881E-01 -.646E-01 -.261E+01   0.507E-03 -.346E-03 -.122E-02
   -.277E-06 0.569E+01 0.332E+04   -.147E-11 -.596E+01 -.332E+04   0.000E+00 0.123E+00 -.266E+01   0.633E-08 0.627E-03 -.115E-02
   0.716E-06 -.559E-01 0.333E+04   -.707E-12 0.361E-01 -.332E+04   -.434E-18 0.113E-01 -.247E+01   0.101E-08 0.535E-04 -.832E-03
   -.723E-01 -.519E-01 0.178E+04   0.649E-01 0.375E-01 -.178E+04   0.279E-01 0.126E-01 -.193E-01   0.400E-03 0.196E-03 0.198E-01
   0.723E-01 -.519E-01 0.178E+04   -.649E-01 0.375E-01 -.178E+04   -.279E-01 0.126E-01 -.193E-01   -.400E-03 0.196E-03 0.198E-01
   -.197E-06 0.896E-02 0.178E+04   -.896E-12 -.510E-12 -.178E+04   0.000E+00 0.393E-02 0.108E-01   0.715E-09 0.316E-04 0.194E-01
   -.130E-04 -.565E+01 0.229E+03   0.291E-10 0.584E+01 -.230E+03   0.000E+00 -.610E-01 -.597E-01   -.255E-08 -.522E-03 0.364E-01
   -.498E+01 -.282E+01 0.332E+04   0.519E+01 0.296E+01 -.332E+04   -.881E-01 -.646E-01 -.261E+01   -.507E-03 -.346E-03 -.122E-02
   -.948E+01 0.209E+00 0.229E+03   0.962E+01 -.324E+00 -.230E+03   0.176E-01 0.775E-01 0.109E+00   -.759E-03 0.788E-04 0.361E-01
   -.420E+01 0.212E+01 -.134E+04   0.426E+01 -.216E+01 0.134E+04   0.169E-01 -.146E-01 0.559E+00   0.213E-03 -.410E-03 0.184E-01
   0.420E+01 0.212E+01 -.134E+04   -.426E+01 -.216E+01 0.134E+04   -.169E-01 -.146E-01 0.559E+00   -.213E-03 -.410E-03 0.184E-01
   -.141E-05 0.294E+00 -.137E+04   -.120E-10 -.288E+00 0.137E+04   -.209E-17 0.772E-03 -.558E+00   0.176E-08 0.284E-03 0.186E-01
   0.198E-06 -.455E+01 -.134E+04   0.115E-10 0.462E+01 0.134E+04   -.867E-18 0.239E-01 0.577E+00   0.151E-08 0.538E-03 0.185E-01
   0.881E+02 0.509E+02 -.294E+04   -.876E+02 -.506E+02 0.294E+04   -.575E+00 -.364E+00 0.689E+00   -.495E-03 -.133E-03 -.555E-02
   -.881E+02 0.509E+02 -.294E+04   0.876E+02 -.506E+02 0.294E+04   0.575E+00 -.364E+00 0.689E+00   0.495E-03 -.133E-03 -.555E-02
   0.492E-05 -.102E+03 -.294E+04   0.112E-10 0.101E+03 0.294E+04   0.278E-16 0.691E+00 0.683E+00   -.184E-08 0.401E-03 -.564E-02
   -.797E-06 0.525E+01 0.224E+03   -.124E-10 -.521E+01 -.224E+03   -.347E-17 -.935E-01 0.131E-01   0.140E-08 0.356E-03 0.357E-01
   0.948E+01 0.209E+00 0.229E+03   -.962E+01 -.324E+00 -.230E+03   -.176E-01 0.775E-01 0.109E+00   0.759E-03 0.789E-04 0.361E-01
   0.227E-05 0.914E-01 0.160E+04   0.333E-11 -.675E-01 -.160E+04   0.173E-17 -.368E-01 -.114E+00   -.470E-09 -.376E-03 0.179E-01
 -----------------------------------------------------------------------------------------------
   -.772E-04 0.123E-01 0.500E+02   0.194E-12 0.122E-13 -.182E-11   0.642E-16 -.124E-01 -.503E+02   -.232E-08 -.145E-03 0.257E+00
 
 
 POSITION                                       TOTAL-FORCE (eV/Angst)
 -----------------------------------------------------------------------------------
      4.17900      2.41275     19.12032         0.000000     -0.006954      0.468527
      1.39300      0.80425     20.49370         0.000000      0.003265     -0.366935
      1.39300      0.80425     21.68184         0.000000     -0.003892      0.334398
      2.78600      1.60850     10.00000        -0.121577      0.077840      0.122036
      6.96500      4.02125     10.00000         0.000000     -0.150194      0.127571
      4.17900      4.02125     10.00000         0.000000     -0.008456     -0.022376
      0.00000      0.00000     12.27476         0.020950     -0.001554      0.165834
      2.78600      0.00000     12.27476        -0.020950     -0.001554      0.165834
      4.17900      2.41275     12.27476         0.000000      0.012924      0.045681
      1.39300      0.80425     14.56601         0.000000      0.129443     -0.343139
      5.57200      1.60850     10.00000         0.121577      0.077840      0.122036
      5.56990      3.21578     14.55975         0.157844     -0.037853     -0.167491
      5.57396      1.60737     16.84425         0.076289     -0.054613     -0.116882
      2.78404      1.60737     16.84425        -0.076289     -0.054613     -0.116882
      6.96500      4.02125     16.88400         0.000000      0.006946      0.041513
      4.17900      4.02351     16.84425         0.000000      0.098950     -0.177179
      8.35497      4.82374     19.19963        -0.061965     -0.023718     -0.073156
      5.57503      4.82374     19.19963         0.061965     -0.023718     -0.073156
      6.96500      2.41625     19.19963        -0.000000      0.068126     -0.091441
      4.17900      0.80668     14.55975         0.000000     -0.057080      0.014599
      2.78810      3.21578     14.55975        -0.157844     -0.037853     -0.167491
      1.39300      2.41275     12.27476         0.000000     -0.013281      0.108096
 -----------------------------------------------------------------------------------
    total drift:                               -0.000077     -0.000208     -0.023337


--------------------------------------------------------------------------------------------------------



  FREE ENERGIE OF THE ION-ELECTRON SYSTEM (eV)
  ---------------------------------------------------
  free  energy   TOTEN  =      -116.40257005 eV

  energy  without entropy=     -116.09413516  energy(sigma->0) =     -116.29975842
 


--------------------------------------------------------------------------------------------------------


    POTLOK:  cpu time    0.0208: real time    0.0208


--------------------------------------------------------------------------------------------------------


     LOOP+:  cpu time  494.7906: real time  495.1574
    4ORBIT:  cpu time    0.0000: real time    0.0000
 


 total charge     
 
# of ion       s       p       d       tot
------------------------------------------
    1        0.427   0.277   9.187   9.890
    2        0.911   1.587   0.000   2.498
    3        1.666   3.534   0.000   5.200
    4        0.455   0.328   8.476   9.259
    5        0.454   0.329   8.477   9.259
    6        0.449   0.323   8.484   9.256
    7        0.469   0.448   8.439   9.356
    8        0.470   0.447   8.434   9.351
    9        0.469   0.448   8.437   9.354
   10        0.471   0.442   8.443   9.356
   11        0.455   0.328   8.477   9.260
   12        0.471   0.439   8.438   9.348
   13        0.457   0.421   8.468   9.346
   14        0.457   0.420   8.473   9.350
   15        0.468   0.417   8.471   9.355
   16        0.459   0.418   8.474   9.351
   17        0.464   0.420   8.567   9.451
   18        0.464   0.420   8.568   9.452
   19        0.464   0.420   8.567   9.451
   20        0.466   0.432   8.450   9.348
   21        0.471   0.439   8.442   9.352
   22        0.424   0.403   7.295   8.122
--------------------------------------------------
tot         11.761  13.140 169.065 193.966
 

 total amount of memory used by VASP MPI-rank0    83270. kBytes
=======================================================================

   base      :      30000. kBytes
   nonlr-proj:       1868. kBytes
   fftplans  :       1543. kBytes
   grid      :       3152. kBytes
   one-center:         62. kBytes
   wavefun   :      46645. kBytes
 
  
  
 General timing and accounting informations for this job:
 ========================================================
  
                  Total CPU time used (sec):      503.239
                            User time (sec):      471.235
                          System time (sec):       32.005
                         Elapsed time (sec):      504.141
  
                   Maximum memory used (kb):      134284.
                   Average memory used (kb):           0.
  
                          Minor page faults:        86036
                          Major page faults:            0
                 Voluntary context switches:          823
