       N       E                     dE             d eps       ncg     rms          rms(c)
DAV:   1     0.116622219294E+04    0.11662E+04   -0.79791E+04 13504   0.105E+03
DAV:   2    -0.488322875725E+02   -0.12151E+04   -0.11417E+04 15192   0.272E+02
DAV:   3    -0.120225018352E+03   -0.71393E+02   -0.65263E+02 15120   0.608E+01
DAV:   4    -0.122528775068E+03   -0.23038E+01   -0.22610E+01 15592   0.114E+01
DAV:   5    -0.122616302973E+03   -0.87528E-01   -0.87467E-01 15736   0.211E+00    0.309E+01
DAV:   6    -0.121809126488E+03    0.80718E+00   -0.35464E+01 14960   0.257E+01    0.273E+01
DAV:   7    -0.170807326397E+03   -0.48998E+02   -0.83956E+01 17736   0.867E+01    0.563E+01
DAV:   8    -0.133022539779E+03    0.37785E+02   -0.58563E+01 16760   0.394E+01    0.330E+01
DAV:   9    -0.126146278099E+03    0.68763E+01   -0.29196E+01 15088   0.328E+01    0.269E+01
DAV:  10    -0.118550780980E+03    0.75955E+01   -0.16910E+01 14568   0.264E+01    0.136E+01
DAV:  11    -0.118096622070E+03    0.45416E+00   -0.15136E+01 14392   0.203E+01    0.143E+01
DAV:  12    -0.116788915686E+03    0.13077E+01   -0.60438E+00 14352   0.134E+01    0.102E+01
DAV:  13    -0.116283923427E+03    0.50499E+00   -0.37475E+00 14064   0.906E+00    0.435E+00
DAV:  14    -0.116391595221E+03   -0.10767E+00   -0.15143E+00 14304   0.550E+00    0.624E+00
DAV:  15    -0.116222573380E+03    0.16902E+00   -0.15957E-01 13824   0.218E+00    0.440E+00
DAV:  16    -0.116121166011E+03    0.10141E+00   -0.41168E-01 14392   0.305E+00    0.236E+00
DAV:  17    -0.116094158041E+03    0.27008E-01   -0.13197E-01 14032   0.215E+00    0.123E+00
DAV:  18    -0.116090903110E+03    0.32549E-02   -0.89040E-02 13544   0.152E+00    0.120E+00
DAV:  19    -0.116085548712E+03    0.53544E-02   -0.33814E-02 13896   0.101E+00    0.877E-01
DAV:  20    -0.116080160507E+03    0.53882E-02   -0.10807E-02 13752   0.500E-01    0.328E-01
DAV:  21    -0.116079950627E+03    0.20988E-03   -0.27956E-03 14048   0.281E-01    0.227E-01
DAV:  22    -0.116079709750E+03    0.24088E-03   -0.15208E-03 13768   0.191E-01    0.154E-01
DAV:  23    -0.116079629178E+03    0.80572E-04   -0.51518E-04 14024   0.129E-01    0.130E-01
DAV:  24    -0.116079530535E+03    0.98643E-04   -0.33595E-04 13944   0.941E-02    0.577E-02
DAV:  25    -0.116079575289E+03   -0.44754E-04   -0.10675E-04 12720   0.505E-02    0.377E-02
DAV:  26    -0.116079664057E+03   -0.88768E-04   -0.57272E-05 11328   0.411E-02    0.305E-02
DAV:  27    -0.116079802123E+03   -0.13807E-03   -0.37642E-05  9064   0.309E-02    0.142E-02
DAV:  28    -0.116080021720E+03   -0.21960E-03   -0.27675E-05 10168   0.223E-02    0.176E-02
DAV:  29    -0.116080155613E+03   -0.13389E-03   -0.11292E-05  8552   0.181E-02    0.125E-02
DAV:  30    -0.116080305276E+03   -0.14966E-03   -0.15793E-05  8864   0.178E-02    0.135E-02
DAV:  31    -0.116080354016E+03   -0.48740E-04   -0.37001E-06  8512   0.970E-03    0.699E-03
DAV:  32    -0.116080398716E+03   -0.44701E-04   -0.20805E-06  7832   0.655E-03    0.538E-03
DAV:  33    -0.116080449202E+03   -0.50485E-04   -0.25840E-06  8208   0.726E-03    0.725E-03
DAV:  34    -0.116080467683E+03   -0.18482E-04   -0.13827E-06  8344   0.490E-03    0.308E-03
DAV:  35    -0.116080486509E+03   -0.18825E-04   -0.10913E-06  7928   0.424E-03    0.319E-03
DAV:  36    -0.116080498711E+03   -0.12202E-04   -0.41918E-07  8200   0.219E-03    0.158E-03
DAV:  37    -0.116080506317E+03   -0.76060E-05   -0.22201E-07  8016   0.105E-03
   1 F= -.11608051E+03 E0= -.11598381E+03  d E =-.290099E+00
