 vasp.5.4.4.18Apr17-6-g9f103f2a35 (build Apr 28 2017 10:53:45) complex          
  
 executed on             LinuxIFC date 2019.05.31  17:26:25
 running on   28 total cores
 distrk:  each k-point on   28 cores,    1 groups
 distr:  one band on NCORES_PER_BAND=   7 cores,    4 groups


--------------------------------------------------------------------------------------------------------


 INCAR:
 POTCAR:    PAW_PBE Ag 02Apr2005                  
 POTCAR:    PAW_PBE C 08Apr2002                   
 POTCAR:    PAW_PBE O 08Apr2002                   
 POTCAR:    PAW_PBE Pd 04Jan2005                  
 POTCAR:    PAW_PBE Rh 04Feb2005                  
 POTCAR:    PAW_PBE Ag 02Apr2005                  
   VRHFIN =Ag : s1 d10                                                          
   LEXCH  = PE                                                                  
   EATOM  =  1037.2675 eV,   76.2370 Ry                                         
                                                                                
   TITEL  = PAW_PBE Ag 02Apr2005                                                
   LULTRA =        F    use ultrasoft PP ?                                      
   IUNSCR =        1    unscreen: 0-lin 1-nonlin 2-no                           
   RPACOR =    2.000    partial core radius                                     
   POMASS =  107.868; ZVAL   =   11.000    mass and valenz                      
   RCORE  =    2.500    outmost cutoff radius                                   
   RWIGS  =    2.840; RWIGS  =    1.503    wigner-seitz radius (au A)           
   ENMAX  =  249.844; ENMIN  =  187.383 eV                                      
   ICORE  =        3    local potential                                         
   LCOR   =        T    correct aug charges                                     
   LPAW   =        T    paw PP                                                  
   EAUG   =  412.496                                                            
   DEXC   =    0.000                                                            
   RMAX   =    2.560    core radius for proj-oper                               
   RAUG   =    1.300    factor for augmentation sphere                          
   RDEP   =    2.576    radius for radial grids                                 
   RDEPT  =    2.072    core radius for aug-charge                              
                                                                                
   Atomic configuration                                                         
   12 entries                                                                   
     n  l   j            E        occ.                                          
     1  0  0.50    -25324.9161   2.0000                                         
     2  0  0.50     -3728.5341   2.0000                                         
     2  1  1.50     -3344.0404   6.0000                                         
     3  0  0.50      -683.5581   2.0000                                         
     3  1  1.50      -557.3225   6.0000                                         
     3  2  2.50      -358.3853  10.0000                                         
     4  0  0.50       -95.0341   2.0000                                         
     4  1  1.50       -58.5511   6.0000                                         
     4  2  2.50        -7.4440  10.0000                                         
     5  0  0.50        -4.4045   1.0000                                         
     5  1  0.50        -1.3606   0.0000                                         
     4  3  2.50        -1.3606   0.0000                                         
   Description                                                                  
     l       E           TYP  RCUT    TYP  RCUT                                 
     2     -7.4439781     23  2.400                                             
     2     -8.8045607     23  2.400                                             
     0     -4.4044681     23  2.400                                             
     0      1.9520038     23  2.400                                             
     1     -1.3605826     23  2.500                                             
     1     27.2116520     23  2.500                                             
     3     -4.0817478     23  2.400                                             
  local pseudopotential read in
  partial core-charges read in
  partial kinetic energy density read in
  atomic valenz-charges read in
  non local Contribution for L=           2  read in
    real space projection operators read in
  non local Contribution for L=           2  read in
    real space projection operators read in
  non local Contribution for L=           0  read in
    real space projection operators read in
  non local Contribution for L=           0  read in
    real space projection operators read in
  non local Contribution for L=           1  read in
    real space projection operators read in
  non local Contribution for L=           1  read in
    real space projection operators read in
    PAW grid and wavefunctions read in
 
   number of l-projection  operators is LMAX  =           6
   number of lm-projection operators is LMMAX =          18
 
 POTCAR:    PAW_PBE C 08Apr2002                   
   VRHFIN =C: s2p2                                                              
   LEXCH  = PE                                                                  
   EATOM  =   147.1560 eV,   10.8157 Ry                                         
                                                                                
   TITEL  = PAW_PBE C 08Apr2002                                                 
   LULTRA =        F    use ultrasoft PP ?                                      
   IUNSCR =        1    unscreen: 0-lin 1-nonlin 2-no                           
   RPACOR =    1.200    partial core radius                                     
   POMASS =   12.011; ZVAL   =    4.000    mass and valenz                      
   RCORE  =    1.500    outmost cutoff radius                                   
   RWIGS  =    1.630; RWIGS  =    0.863    wigner-seitz radius (au A)           
   ENMAX  =  400.000; ENMIN  =  300.000 eV                                      
   ICORE  =        2    local potential                                         
   LCOR   =        T    correct aug charges                                     
   LPAW   =        T    paw PP                                                  
   EAUG   =  644.873                                                            
   DEXC   =    0.000                                                            
   RMAX   =    1.529    core radius for proj-oper                               
   RAUG   =    1.300    factor for augmentation sphere                          
   RDEP   =    1.501    radius for radial grids                                 
   RDEPT  =    1.300    core radius for aug-charge                              
                                                                                
   Atomic configuration                                                         
    4 entries                                                                   
     n  l   j            E        occ.                                          
     1  0  0.50      -273.3789   2.0000                                         
     2  0  0.50       -13.7508   2.0000                                         
     2  1  0.50        -5.2854   2.0000                                         
     3  2  1.50        -5.4423   0.0000                                         
   Description                                                                  
     l       E           TYP  RCUT    TYP  RCUT                                 
     0    -13.7508458     23  1.200                                             
     0     -8.2022199     23  1.200                                             
     1     -5.2854383     23  1.500                                             
     1     34.0145650     23  1.500                                             
     2     -5.4423304      7  1.500                                             
  local pseudopotential read in
  partial core-charges read in
  partial kinetic energy density read in
  atomic valenz-charges read in
  non local Contribution for L=           0  read in
    real space projection operators read in
  non local Contribution for L=           0  read in
    real space projection operators read in
  non local Contribution for L=           1  read in
    real space projection operators read in
  non local Contribution for L=           1  read in
    real space projection operators read in
    PAW grid and wavefunctions read in
 
   number of l-projection  operators is LMAX  =           4
   number of lm-projection operators is LMMAX =           8
 
 POTCAR:    PAW_PBE O 08Apr2002                   
   VRHFIN =O: s2p4                                                              
   LEXCH  = PE                                                                  
   EATOM  =   432.3788 eV,   31.7789 Ry                                         
                                                                                
   TITEL  = PAW_PBE O 08Apr2002                                                 
   LULTRA =        F    use ultrasoft PP ?                                      
   IUNSCR =        1    unscreen: 0-lin 1-nonlin 2-no                           
   RPACOR =    1.200    partial core radius                                     
   POMASS =   16.000; ZVAL   =    6.000    mass and valenz                      
   RCORE  =    1.520    outmost cutoff radius                                   
   RWIGS  =    1.550; RWIGS  =    0.820    wigner-seitz radius (au A)           
   ENMAX  =  400.000; ENMIN  =  300.000 eV                                      
   ICORE  =        2    local potential                                         
   LCOR   =        T    correct aug charges                                     
   LPAW   =        T    paw PP                                                  
   EAUG   =  605.392                                                            
   DEXC   =    0.000                                                            
   RMAX   =    1.553    core radius for proj-oper                               
   RAUG   =    1.300    factor for augmentation sphere                          
   RDEP   =    1.550    radius for radial grids                                 
   RDEPT  =    1.329    core radius for aug-charge                              
                                                                                
   Atomic configuration                                                         
    4 entries                                                                   
     n  l   j            E        occ.                                          
     1  0  0.50      -514.6923   2.0000                                         
     2  0  0.50       -23.9615   2.0000                                         
     2  1  0.50        -9.0305   4.0000                                         
     3  2  1.50        -9.5241   0.0000                                         
   Description                                                                  
     l       E           TYP  RCUT    TYP  RCUT                                 
     0    -23.9615318     23  1.200                                             
     0     -9.5240782     23  1.200                                             
     1     -9.0304911     23  1.520                                             
     1      8.1634956     23  1.520                                             
     2     -9.5240782      7  1.500                                             
  local pseudopotential read in
  partial core-charges read in
  partial kinetic energy density read in
  kinetic energy density of atom read in
  atomic valenz-charges read in
  non local Contribution for L=           0  read in
    real space projection operators read in
  non local Contribution for L=           0  read in
    real space projection operators read in
  non local Contribution for L=           1  read in
    real space projection operators read in
  non local Contribution for L=           1  read in
    real space projection operators read in
    PAW grid and wavefunctions read in
 
   number of l-projection  operators is LMAX  =           4
   number of lm-projection operators is LMMAX =           8
 
 POTCAR:    PAW_PBE Pd 04Jan2005                  
   VRHFIN =Pd : s1 d9                                                           
   LEXCH  = PE                                                                  
   EATOM  =   809.7530 eV,   59.5152 Ry                                         
                                                                                
   TITEL  = PAW_PBE Pd 04Jan2005                                                
   LULTRA =        F    use ultrasoft PP ?                                      
   IUNSCR =        1    unscreen: 0-lin 1-nonlin 2-no                           
   RPACOR =    2.000    partial core radius                                     
   POMASS =  106.420; ZVAL   =   10.000    mass and valenz                      
   RCORE  =    2.600    outmost cutoff radius                                   
   RWIGS  =    2.710; RWIGS  =    1.434    wigner-seitz radius (au A)           
   ENMAX  =  250.925; ENMIN  =  188.194 eV                                      
   ICORE  =        3    local potential                                         
   LCOR   =        T    correct aug charges                                     
   LPAW   =        T    paw PP                                                  
   EAUG   =  416.230                                                            
   DEXC   =    0.000                                                            
   RMAX   =    2.653    core radius for proj-oper                               
   RAUG   =    1.300    factor for augmentation sphere                          
   RDEP   =    2.734    radius for radial grids                                 
   RDEPT  =    2.103    core radius for aug-charge                              
                                                                                
   Atomic configuration                                                         
   12 entries                                                                   
     n  l   j            E        occ.                                          
     1  0  0.50    -24164.6631   2.0000                                         
     2  0  0.50     -3530.9218   2.0000                                         
     2  1  1.50     -3165.6822   6.0000                                         
     3  0  0.50      -639.4577   2.0000                                         
     3  1  1.50      -519.4532   6.0000                                         
     3  2  2.50      -328.9757  10.0000                                         
     4  0  0.50       -88.7014   2.0000                                         
     4  1  1.50       -54.4540   6.0000                                         
     4  2  2.50        -6.6878   9.0000                                         
     5  0  0.50        -4.3543   1.0000                                         
     5  1  0.50        -1.3606   0.0000                                         
     4  3  2.50        -1.3606   0.0000                                         
   Description                                                                  
     l       E           TYP  RCUT    TYP  RCUT                                 
     2     -6.6878251     23  2.400                                             
     2     -8.0484077     23  2.400                                             
     0     -4.3542939     23  2.400                                             
     0      4.3406793     23  2.400                                             
     1     -4.0817478     23  2.600                                             
     1     15.8380318     23  2.600                                             
     3     -4.0817478     23  2.400                                             
  local pseudopotential read in
  partial core-charges read in
  partial kinetic energy density read in
  atomic valenz-charges read in
  non local Contribution for L=           2  read in
    real space projection operators read in
  non local Contribution for L=           2  read in
    real space projection operators read in
  non local Contribution for L=           0  read in
    real space projection operators read in
  non local Contribution for L=           0  read in
    real space projection operators read in
  non local Contribution for L=           1  read in
    real space projection operators read in
  non local Contribution for L=           1  read in
    real space projection operators read in
    PAW grid and wavefunctions read in
 
   number of l-projection  operators is LMAX  =           6
   number of lm-projection operators is LMMAX =          18
 
 POTCAR:    PAW_PBE Rh 04Feb2005                  
   VRHFIN =Rh: s1 d8                                                            
   LEXCH  = PE                                                                  
   EATOM  =   616.4198 eV,   45.3056 Ry                                         
                                                                                
   TITEL  = PAW_PBE Rh 04Feb2005                                                
   LULTRA =        F    use ultrasoft PP ?                                      
   IUNSCR =        1    unscreen: 0-lin 1-nonlin 2-no                           
   RPACOR =    2.170    partial core radius                                     
   POMASS =  102.906; ZVAL   =    9.000    mass and valenz                      
   RCORE  =    2.700    outmost cutoff radius                                   
   RWIGS  =    2.650; RWIGS  =    1.402    wigner-seitz radius (au A)           
   ENMAX  =  228.996; ENMIN  =  171.747 eV                                      
   ICORE  =        3    local potential                                         
   LCOR   =        T    correct aug charges                                     
   LPAW   =        T    paw PP                                                  
   EAUG   =  374.513                                                            
   DEXC   =    0.000                                                            
   RMAX   =    2.752    core radius for proj-oper                               
   RAUG   =    1.300    factor for augmentation sphere                          
   RDEP   =    2.703    radius for radial grids                                 
   RDEPT  =    2.174    core radius for aug-charge                              
                                                                                
   Atomic configuration                                                         
   12 entries                                                                   
     n  l   j            E        occ.                                          
     1  0  0.50    -23034.1986   2.0000                                         
     2  0  0.50     -3339.2387   2.0000                                         
     2  1  1.50     -2992.3290   6.0000                                         
     3  0  0.50      -596.7249   2.0000                                         
     3  1  1.50      -482.7183   6.0000                                         
     3  2  2.50      -300.5356  10.0000                                         
     4  0  0.50       -82.4809   2.0000                                         
     4  1  0.50       -50.4082   6.0000                                         
     4  2  2.50        -5.9408   8.0000                                         
     5  0  0.50        -4.2999   1.0000                                         
     5  1  1.50        -1.3606   0.0000                                         
     4  3  2.50        -1.3606   0.0000                                         
   Description                                                                  
     l       E           TYP  RCUT    TYP  RCUT                                 
     2     -5.9407964     23  2.500                                             
     2     -7.3013790     23  2.500                                             
     0     -4.2998518     23  2.400                                             
     0      6.0533315     23  2.400                                             
     1     -4.0817478     23  2.700                                             
     1     27.2116520     23  2.700                                             
     3     -4.0817478     23  2.500                                             
  local pseudopotential read in
  partial core-charges read in
  partial kinetic energy density read in
  atomic valenz-charges read in
  non local Contribution for L=           2  read in
    real space projection operators read in
  non local Contribution for L=           2  read in
    real space projection operators read in
  non local Contribution for L=           0  read in
    real space projection operators read in
  non local Contribution for L=           0  read in
    real space projection operators read in
  non local Contribution for L=           1  read in
    real space projection operators read in
  non local Contribution for L=           1  read in
    real space projection operators read in
    PAW grid and wavefunctions read in
 
   number of l-projection  operators is LMAX  =           6
   number of lm-projection operators is LMMAX =          18
 
 Optimization of the real space projectors (new method)

 maximal supplied QI-value         = 15.12
 optimisation between [QCUT,QGAM] = [  9.52, 19.05] = [ 25.40,101.61] Ry 
 Optimized for a Real-space Cutoff    1.43 Angstroem

   l    n(q)    QCUT    max X(q) W(low)/X(q) W(high)/X(q)  e(spline) 
   2      7     9.524    53.897    0.36E-03    0.74E-03    0.67E-07
   2      7     9.524    52.416    0.37E-03    0.76E-03    0.67E-07
   0      8     9.524   122.045    0.11E-03    0.28E-03    0.55E-07
   0      8     9.524    73.629    0.11E-03    0.27E-03    0.53E-07
   1      8     9.524    15.255    0.22E-03    0.34E-03    0.12E-06
   1      8     9.524     9.562    0.19E-03    0.28E-03    0.10E-06
 Optimization of the real space projectors (new method)

 maximal supplied QI-value         = 25.13
 optimisation between [QCUT,QGAM] = [  9.55, 19.10] = [ 25.54,102.17] Ry 
 Optimized for a Real-space Cutoff    1.39 Angstroem

   l    n(q)    QCUT    max X(q) W(low)/X(q) W(high)/X(q)  e(spline) 
   0      8     9.551   115.676    0.39E-03    0.54E-03    0.29E-06
   0      8     9.551    87.132    0.39E-03    0.54E-03    0.28E-06
   1      7     9.551     4.429    0.35E-03    0.51E-04    0.29E-06
   1      7     9.551     2.733    0.22E-03    0.42E-04    0.31E-06
 Optimization of the real space projectors (new method)

 maximal supplied QI-value         = 24.76
 optimisation between [QCUT,QGAM] = [  9.41, 19.06] = [ 24.78,101.75] Ry 
 Optimized for a Real-space Cutoff    1.48 Angstroem

   l    n(q)    QCUT    max X(q) W(low)/X(q) W(high)/X(q)  e(spline) 
   0      8     9.407    20.381    0.17E-03    0.13E-03    0.41E-06
   0      8     9.407    15.268    0.19E-03    0.15E-03    0.42E-06
   1      8     9.407     5.946    0.36E-03    0.29E-03    0.38E-06
   1      8     9.407     5.382    0.31E-03    0.24E-03    0.34E-06
 Optimization of the real space projectors (new method)

 maximal supplied QI-value         = 14.36
 optimisation between [QCUT,QGAM] = [  9.48, 19.10] = [ 25.16,102.17] Ry 
 Optimized for a Real-space Cutoff    1.52 Angstroem

   l    n(q)    QCUT    max X(q) W(low)/X(q) W(high)/X(q)  e(spline) 
   2      8     9.479    59.108    0.48E-04    0.31E-03    0.96E-07
   2      8     9.479    58.101    0.46E-04    0.32E-03    0.99E-07
   0      9     9.479   102.235    0.56E-04    0.11E-03    0.61E-07
   0      9     9.479    58.388    0.50E-04    0.10E-03    0.58E-07
   1      8     9.479    22.191    0.26E-03    0.25E-04    0.13E-06
   1      8     9.479    15.590    0.22E-03    0.23E-04    0.11E-06
 Optimization of the real space projectors (new method)

 maximal supplied QI-value         = 13.98
 optimisation between [QCUT,QGAM] = [  9.51, 19.16] = [ 25.32,102.78] Ry 
 Optimized for a Real-space Cutoff    1.57 Angstroem

   l    n(q)    QCUT    max X(q) W(low)/X(q) W(high)/X(q)  e(spline) 
   2      8     9.509    59.645    0.36E-03    0.26E-04    0.85E-07
   2      8     9.509    58.460    0.36E-03    0.26E-04    0.89E-07
   0      9     9.509    97.683    0.11E-03    0.15E-03    0.88E-07
   0      9     9.509    53.223    0.10E-03    0.14E-03    0.82E-07
   1      8     9.509    13.596    0.23E-03    0.93E-04    0.99E-07
   1      8     9.509     7.885    0.17E-03    0.72E-04    0.80E-07
  PAW_PBE Ag 02Apr2005                  :
 energy of atom  1       EATOM=-1037.2675
 kinetic energy error for atom=    0.0272 (will be added to EATOM!!)
  PAW_PBE C 08Apr2002                   :
 energy of atom  2       EATOM= -147.1560
 kinetic energy error for atom=    0.0854 (will be added to EATOM!!)
  PAW_PBE O 08Apr2002                   :
 energy of atom  3       EATOM= -432.3788
 kinetic energy error for atom=    0.3782 (will be added to EATOM!!)
  PAW_PBE Pd 04Jan2005                  :
 energy of atom  4       EATOM= -809.7530
 kinetic energy error for atom=    0.0269 (will be added to EATOM!!)
  PAW_PBE Rh 04Feb2005                  :
 energy of atom  5       EATOM= -616.4198
 kinetic energy error for atom=    0.0105 (will be added to EATOM!!)
 
 
 POSCAR: Ag  C  O Pd Rh                          
  positions in cartesian coordinates
  No initial velocities read in
 exchange correlation table for  LEXCH =        8
   RHO(1)=    0.500       N(1)  =     2000
   RHO(2)=  100.500       N(2)  =     4000
 


--------------------------------------------------------------------------------------------------------


 ion  position               nearest neighbor table
   1  0.833  0.833  0.580-  13 2.79  15 2.79  14 2.79  14 2.79  13 2.79  15 2.79  16 2.82  17 2.82
                            18 2.82  20 2.83  21 2.83  12 2.83
   2  0.167  0.167  0.704-   3 1.19  16 2.07  17 2.07  18 2.07
   3  0.167  0.167  0.745-   2 1.19
   4  0.333  0.333  0.344-   9 2.79   8 2.79  22 2.79  11 2.79   6 2.79   5 2.79   6 2.79   5 2.79
                            11 2.79
   5  0.833  0.833  0.344-   7 2.79   8 2.79  22 2.79  11 2.79   6 2.79   4 2.79  11 2.79   4 2.79
                             6 2.79
   6  0.333  0.833  0.344-   8 2.79   7 2.79   9 2.79   5 2.79   4 2.79   4 2.79  11 2.79   5 2.79
                            11 2.79
   7  0.000  0.000  0.422-   5 2.79   6 2.79  11 2.79   8 2.79  22 2.79   9 2.79  22 2.79   8 2.79
                             9 2.79  21 2.80  20 2.80  10 2.80
   8  0.500  0.000  0.422-   6 2.79   5 2.79   4 2.79   7 2.79   9 2.79   9 2.79  22 2.79   7 2.79
                            22 2.79  20 2.80  12 2.80  10 2.80
   9  0.500  0.500  0.422-   4 2.79   6 2.79  11 2.79   8 2.79  22 2.79   7 2.79   8 2.79   7 2.79
                            22 2.79  12 2.79  21 2.79  20 2.79
  10  0.167  0.167  0.501-  21 2.79  12 2.79  12 2.79  20 2.79  21 2.79  20 2.79  13 2.79  15 2.79
                            14 2.79   7 2.80   8 2.80  22 2.80
  11  0.833  0.333  0.344-  22 2.79   9 2.79   7 2.79   5 2.79   4 2.79   5 2.79   6 2.79   4 2.79
                             6 2.79
  12  0.666  0.666  0.500-  20 2.78  21 2.78  10 2.79  10 2.79  20 2.79  21 2.79   9 2.79  13 2.79
                            15 2.79   8 2.80  22 2.80   1 2.83
  13  0.834  0.333  0.579-  14 2.78  15 2.78   1 2.79   1 2.79  10 2.79  19 2.79  15 2.79  14 2.79
                            12 2.79  20 2.79  18 2.85  16 2.85
  14  0.333  0.333  0.579-  13 2.78  15 2.78   1 2.79   1 2.79  10 2.79  19 2.79  13 2.79  15 2.79
                            21 2.79  20 2.79  18 2.85  17 2.85
  15  0.333  0.834  0.579-  13 2.78  14 2.78   1 2.79   1 2.79  10 2.79  19 2.79  13 2.79  14 2.79
                            12 2.79  21 2.79  17 2.85  16 2.85
  16  1.000  1.000  0.660-   2 2.07  17 2.78  18 2.78  19 2.79  19 2.79  17 2.79  18 2.79   1 2.82
                            13 2.85  15 2.85
  17  0.501  1.000  0.660-   2 2.07  16 2.78  18 2.78  19 2.79  19 2.79  18 2.79  16 2.79   1 2.82
                            15 2.85  14 2.85
  18  1.000  0.501  0.660-   2 2.07  16 2.78  17 2.78  19 2.79  19 2.79  17 2.79  16 2.79   1 2.82
                            13 2.85  14 2.85
  19  0.500  0.500  0.657-  18 2.79  16 2.79  17 2.79  16 2.79  18 2.79  17 2.79  14 2.79  13 2.79
                            15 2.79
  20  0.666  0.167  0.500-  12 2.78  21 2.78  10 2.79  10 2.79  21 2.79  12 2.79   9 2.79  14 2.79
                            13 2.79   8 2.80   7 2.80   1 2.83
  21  0.167  0.666  0.500-  12 2.78  20 2.78  10 2.79  10 2.79  20 2.79  12 2.79   9 2.79  14 2.79
                            15 2.79  22 2.80   7 2.80   1 2.83
  22  0.000  0.500  0.422-  11 2.79   5 2.79   4 2.79   9 2.79   7 2.79   7 2.79   8 2.79   8 2.79
                             9 2.79  21 2.80  12 2.80  10 2.80
 
  LATTYP: Found a hexagonal cell.
 ALAT       =     5.5720014357
 C/A-ratio  =     5.2223676856
  
  Lattice vectors:
  
 A1 = (   2.7860007179,  -4.8254947933,   0.0000000000)
 A2 = (  -5.5720014357,   0.0000000000,   0.0000000000)
 A3 = (   0.0000000000,   0.0000000000, -29.0990402424)


Analysis of symmetry for initial positions (statically):
=====================================================================
 Subroutine PRICEL returns:
 Original cell was already a primitive cell.
 

 Routine SETGRP: Setting up the symmetry group for a 
 hexagonal supercell.


 Subroutine GETGRP returns: Found  2 space group operations
 (whereof  1 operations were pure point group operations)
 out of a pool of 24 trial point group operations.


The static configuration has the point symmetry C_1 .
 The point group associated with its full space group is C_1h.


Analysis of symmetry for dynamics (positions and initial velocities):
=====================================================================
 Subroutine PRICEL returns:
 Original cell was already a primitive cell.
 

 Routine SETGRP: Setting up the symmetry group for a 
 hexagonal supercell.


 Subroutine GETGRP returns: Found  2 space group operations
 (whereof  1 operations were pure point group operations)
 out of a pool of 24 trial point group operations.


The dynamic configuration has the point symmetry C_1 .
 The point group associated with its full space group is C_1h.


Analysis of constrained symmetry for selective dynamics:
=====================================================================
 Subroutine PRICEL returns:
 Original cell was already a primitive cell.
 

 Routine SETGRP: Setting up the symmetry group for a 
 hexagonal supercell.


 Subroutine GETGRP returns: Found  2 space group operations
 (whereof  1 operations were pure point group operations)
 out of a pool of 24 trial point group operations.


The constrained configuration has the point symmetry C_1 .
 The point group associated with its full space group is C_1h.


 Subroutine INISYM returns: Found  2 space group operations
 (whereof  1 operations are pure point group operations),
 and found     1 'primitive' translations

 
 
 KPOINTS: 0_3_Rh14_Ag7                            

Automatic generation of k-mesh.
Space group operators:
 irot       det(A)        alpha          n_x          n_y          n_z        tau_x        tau_y        tau_z
    1     1.000000     0.000000     1.000000     0.000000     0.000000     0.000000     0.000000     0.000000
    2    -1.000000   180.000000     1.000000     0.000000     0.000000    -0.500000     0.000000     0.000000
 
 Subroutine IBZKPT returns following result:
 ===========================================
 
 Found     52 irreducible k-points:
 
 Following reciprocal coordinates:
            Coordinates               Weight
  0.062500  0.062500  0.000000     32.000000
  0.000000  0.062500  0.000000     16.000000
  0.187500  0.062500  0.000000     32.000000
  0.125000  0.187500  0.000000     32.000000
 -0.062500  0.125000  0.000000     32.000000
  0.312500  0.062500  0.000000     32.000000
  0.250000  0.312500  0.000000     32.000000
 -0.062500  0.250000  0.000000     32.000000
  0.437500  0.062500  0.000000     32.000000
  0.375000  0.437500  0.000000     32.000000
 -0.062500  0.375000  0.000000     32.000000
 -0.437500  0.062500  0.000000     32.000000
  0.500000 -0.437500  0.000000     32.000000
 -0.062500  0.500000  0.000000     32.000000
 -0.312500  0.062500  0.000000     32.000000
 -0.375000 -0.312500  0.000000     32.000000
 -0.062500 -0.375000  0.000000     32.000000
 -0.187500  0.062500  0.000000     32.000000
 -0.250000 -0.187500  0.000000     32.000000
 -0.062500 -0.250000  0.000000     32.000000
 -0.062500  0.062500  0.000000     32.000000
 -0.125000 -0.062500  0.000000     16.000000
  0.187500  0.187500  0.000000     32.000000
  0.000000  0.187500  0.000000     16.000000
  0.312500  0.187500  0.000000     32.000000
  0.125000  0.312500  0.000000     32.000000
 -0.187500  0.125000  0.000000     32.000000
  0.437500  0.187500  0.000000     32.000000
  0.250000  0.437500  0.000000     32.000000
 -0.187500  0.250000  0.000000     32.000000
 -0.437500  0.187500  0.000000     32.000000
  0.375000 -0.437500  0.000000     32.000000
 -0.187500  0.375000  0.000000     32.000000
 -0.312500  0.187500  0.000000     32.000000
  0.500000 -0.312500  0.000000     32.000000
 -0.187500  0.500000  0.000000     32.000000
 -0.187500  0.187500  0.000000     32.000000
 -0.375000 -0.187500  0.000000     16.000000
  0.312500  0.312500  0.000000     32.000000
  0.000000  0.312500  0.000000     16.000000
  0.437500  0.312500  0.000000     32.000000
  0.125000  0.437500  0.000000     32.000000
 -0.312500  0.125000  0.000000     32.000000
 -0.437500  0.312500  0.000000     32.000000
  0.250000 -0.437500  0.000000     32.000000
 -0.312500  0.250000  0.000000     32.000000
 -0.312500  0.312500  0.000000     32.000000
  0.375000 -0.312500  0.000000     16.000000
  0.437500  0.437500  0.000000     32.000000
  0.000000  0.437500  0.000000     16.000000
 -0.437500  0.437500  0.000000     32.000000
  0.125000 -0.437500  0.000000     16.000000
 
 Following cartesian coordinates:
            Coordinates               Weight
  0.011217  0.006476  0.000000     32.000000
  0.000000  0.012952  0.000000     16.000000
  0.033650 -0.006476  0.000000     32.000000
  0.022434  0.025904  0.000000     32.000000
 -0.011217  0.032380  0.000000     32.000000
  0.056084 -0.019428  0.000000     32.000000
  0.044867  0.038856  0.000000     32.000000
 -0.011217  0.058284  0.000000     32.000000
  0.078518 -0.032380  0.000000     32.000000
  0.067301  0.051808  0.000000     32.000000
 -0.011217  0.084188  0.000000     32.000000
 -0.078518  0.058284  0.000000     32.000000
  0.089734 -0.142472  0.000000     32.000000
 -0.011217  0.110092  0.000000     32.000000
 -0.056084  0.045332  0.000000     32.000000
 -0.067301 -0.025904  0.000000     32.000000
 -0.011217 -0.071236  0.000000     32.000000
 -0.033650  0.032380  0.000000     32.000000
 -0.044867 -0.012952  0.000000     32.000000
 -0.011217 -0.045332  0.000000     32.000000
 -0.011217  0.019428  0.000000     32.000000
 -0.022434  0.000000  0.000000     16.000000
  0.033650  0.019428  0.000000     32.000000
  0.000000  0.038856  0.000000     16.000000
  0.056084  0.006476  0.000000     32.000000
  0.022434  0.051808  0.000000     32.000000
 -0.033650  0.045332  0.000000     32.000000
  0.078518 -0.006476  0.000000     32.000000
  0.044867  0.064760  0.000000     32.000000
 -0.033650  0.071236  0.000000     32.000000
 -0.078518  0.084188  0.000000     32.000000
  0.067301 -0.129520  0.000000     32.000000
 -0.033650  0.097140  0.000000     32.000000
 -0.056084  0.071236  0.000000     32.000000
  0.089734 -0.116568  0.000000     32.000000
 -0.033650  0.123044  0.000000     32.000000
 -0.033650  0.058284  0.000000     32.000000
 -0.067301  0.000000  0.000000     16.000000
  0.056084  0.032380  0.000000     32.000000
  0.000000  0.064760  0.000000     16.000000
  0.078518  0.019428  0.000000     32.000000
  0.022434  0.077712  0.000000     32.000000
 -0.056084  0.058284  0.000000     32.000000
 -0.078518  0.110092  0.000000     32.000000
  0.044867 -0.116568  0.000000     32.000000
 -0.056084  0.084188  0.000000     32.000000
 -0.056084  0.097140  0.000000     32.000000
  0.067301 -0.103616  0.000000     16.000000
  0.078518  0.045332  0.000000     32.000000
  0.000000  0.090664  0.000000     16.000000
 -0.078518  0.135996  0.000000     32.000000
  0.022434 -0.103616  0.000000     16.000000
 


--------------------------------------------------------------------------------------------------------




 Dimension of arrays:
   k-points           NKPTS =     52   k-points in BZ     NKDIM =     52   number of bands    NBANDS=    128
   number of dos      NEDOS =    301   number of ions     NIONS =     22
   non local maximal  LDIM  =      6   non local SUM 2l+1 LMDIM =     18
   total plane-waves  NPLWV = 109760
   max r-space proj   IRMAX =   2305   max aug-charges    IRDMAX=   8172
   dimension x,y,z NGX =    28 NGY =   28 NGZ =  140
   dimension x,y,z NGXF=    56 NGYF=   56 NGZF=  280
   support grid    NGXF=    56 NGYF=   56 NGZF=  280
   ions per type =               1   1   1  18   1
   NGX,Y,Z   is equivalent  to a cutoff of   8.35,  8.35,  8.00 a.u.
   NGXF,Y,Z  is equivalent  to a cutoff of  16.71, 16.71, 16.00 a.u.

 SYSTEM =  0_3_Rh14_Ag7                            
 POSCAR =  Ag  C  O Pd Rh                          

 Startparameter for this run:
   NWRITE =      2    write-flag & timer
   PREC   = normal    normal or accurate (medium, high low for compatibility)
   ISTART =      0    job   : 0-new  1-cont  2-samecut
   ICHARG =      2    charge: 1-file 2-atom 10-const
   ISPIN  =      1    spin polarized calculation?
   LNONCOLLINEAR =      F non collinear calculations
   LSORBIT =      F    spin-orbit coupling
   INIWAV =      1    electr: 0-lowe 1-rand  2-diag
   LASPH  =      F    aspherical Exc in radial PAW
   METAGGA=      F    non-selfconsistent MetaGGA calc.

 Electronic Relaxation 1
   ENCUT  =  350.0 eV  25.72 Ry    5.07 a.u.   8.50  8.50 44.39*2*pi/ulx,y,z
   ENINI  =  350.0     initial cutoff
   ENAUG  =  644.9 eV  augmentation charge cutoff
   NELM   =    300;   NELMIN=  5; NELMDL= -5     # of ELM steps 
   EDIFF  = 0.1E-04   stopping-criterion for ELM
   LREAL  =      T    real-space projection
   NLSPLINE    = F    spline interpolate recip. space projectors
   LCOMPAT=      F    compatible to vasp.4.4
   GGA_COMPAT  = T    GGA compatible to vasp.4.4-vasp.4.6
   LMAXPAW     = -100 max onsite density
   LMAXMIX     =    2 max onsite mixed and CHGCAR
   VOSKOWN=      0    Vosko Wilk Nusair interpolation
   ROPT   =   -0.00050  -0.00050  -0.00050  -0.00050
   ROPT   =   -0.00050
 Ionic relaxation
   EDIFFG = 0.1E-03   stopping-criterion for IOM
   NSW    =      0    number of steps for IOM
   NBLOCK =      1;   KBLOCK =      1    inner block; outer block 
   IBRION =     -1    ionic relax: 0-MD 1-quasi-New 2-CG
   NFREE  =      0    steps in history (QN), initial steepest desc. (CG)
   ISIF   =      2    stress and relaxation
   IWAVPR =     10    prediction:  0-non 1-charg 2-wave 3-comb
   ISYM   =      2    0-nonsym 1-usesym 2-fastsym
   LCORR  =      T    Harris-Foulkes like correction to forces

   POTIM  = 0.5000    time-step for ionic-motion
   TEIN   =    0.0    initial temperature
   TEBEG  =    0.0;   TEEND  =   0.0 temperature during run
   SMASS  =  -3.00    Nose mass-parameter (am)
   estimated Nose-frequenzy (Omega)   =  0.10E-29 period in steps =****** mass=  -0.710E-27a.u.
   SCALEE = 1.0000    scale energy and forces
   NPACO  =    256;   APACO  = 16.0  distance and # of slots for P.C.
   PSTRESS=    0.0 pullay stress

  Mass of Ions in am
   POMASS = 107.87 12.01 16.00106.42102.91
  Ionic Valenz
   ZVAL   =  11.00  4.00  6.00 10.00  9.00
  Atomic Wigner-Seitz radii
   RWIGS  =  -1.00 -1.00 -1.00 -1.00 -1.00
  virtual crystal weights 
   VCA    =   1.00  1.00  1.00  1.00  1.00
   NELECT =     210.0000    total number of electrons
   NUPDOWN=      -1.0000    fix difference up-down

 DOS related values:
   EMIN   =  10.00;   EMAX   =-10.00  energy-range for DOS
   EFERMI =   0.00
   ISMEAR =     1;   SIGMA  =   0.40  broadening in eV -4-tet -1-fermi 0-gaus

 Electronic relaxation 2 (details)
   IALGO  =     38    algorithm
   LDIAG  =      T    sub-space diagonalisation (order eigenvalues)
   LSUBROT=      F    optimize rotation matrix (better conditioning)
   TURBO    =      0    0=normal 1=particle mesh
   IRESTART =      0    0=no restart 2=restart with 2 vectors
   NREBOOT  =      0    no. of reboots
   NMIN     =      0    reboot dimension
   EREF     =   0.00    reference energy to select bands
   IMIX   =      4    mixing-type and parameters
     AMIX     =   0.40;   BMIX     =  1.00
     AMIX_MAG =   1.60;   BMIX_MAG =  1.00
     AMIN     =   0.10
     WC   =   100.;   INIMIX=   1;  MIXPRE=   1;  MAXMIX= -45

 Intra band minimization:
   WEIMIN = 0.0000     energy-eigenvalue tresh-hold
   EBREAK =  0.20E-07  absolut break condition
   DEPER  =   0.30     relativ break condition  

   TIME   =   0.40     timestep for ELM

  volume/ion in A,a.u.               =      35.56       240.00
  Fermi-wavevector in a.u.,A,eV,Ry     =   1.056016  1.995582 15.172819  1.115171
  Thomas-Fermi vector in A             =   2.191236
 
 Write flags
   LWAVE        =      F    write WAVECAR
   LDOWNSAMPLE  =      F    k-point downsampling of WAVECAR
   LCHARG       =      F    write CHGCAR
   LVTOT        =      F    write LOCPOT, total local potential
   LVHAR        =      F    write LOCPOT, Hartree potential only
   LELF         =      F    write electronic localiz. function (ELF)
   LORBIT       =     11    0 simple, 1 ext, 2 COOP (PROOUT), +10 PAW based schemes


 Dipole corrections
   LMONO  =      F    monopole corrections only (constant potential shift)
   LDIPOL =      F    correct potential (dipole corrections)
   IDIPOL =      0    1-x, 2-y, 3-z, 4-all directions 
   EPSILON=  1.0000000 bulk dielectric constant

 Exchange correlation treatment:
   GGA     =    --    GGA type
   LEXCH   =     8    internal setting for exchange type
   VOSKOWN=      0    Vosko Wilk Nusair interpolation
   LHFCALC =     F    Hartree Fock is set to
   LHFONE  =     F    Hartree Fock one center treatment
   AEXX    =    0.0000 exact exchange contribution

 Linear response parameters
   LEPSILON=     F    determine dielectric tensor
   LRPA    =     F    only Hartree local field effects (RPA)
   LNABLA  =     F    use nabla operator in PAW spheres
   LVEL    =     F    velocity operator in full k-point grid
   LINTERFAST=   F  fast interpolation
   KINTER  =     0    interpolate to denser k-point grid
   CSHIFT  =0.1000    complex shift for real part using Kramers Kronig
   OMEGAMAX=  -1.0    maximum frequency
   DEG_THRESHOLD= 0.2000000E-02 threshold for treating states as degnerate
   RTIME   =   -0.100 relaxation time in fs
  (WPLASMAI=    0.000 imaginary part of plasma frequency in eV, 0.658/RTIME)
   DFIELD  = 0.0000000 0.0000000 0.0000000 field for delta impulse in time
 
 Orbital magnetization related:
   ORBITALMAG=     F  switch on orbital magnetization
   LCHIMAG   =     F  perturbation theory with respect to B field
   DQ        =  0.001000  dq finite difference perturbation B field
   LLRAUG    =     F  two centre corrections for induced B field



--------------------------------------------------------------------------------------------------------


 Static calculation
 charge density and potential will be updated during run
 non-spin polarized calculation
 Variant of blocked Davidson
 Davidson routine will perform the subspace rotation
 perform sub-space diagonalisation
    after iterative eigenvector-optimisation
 modified Broyden-mixing scheme, WC =      100.0
 initial mixing is a Kerker type mixing with AMIX =  0.4000 and BMIX =      1.0000
 Hartree-type preconditioning will be used
 using additional bands           23
 real space projection scheme for non local part
 use partial core corrections
 calculate Harris-corrections to forces 
   (improved forces if not selfconsistent)
 use gradient corrections 
 use of overlap-Matrix (Vanderbilt PP)
 Methfessel and Paxton  Order N= 1 SIGMA  =   0.40


--------------------------------------------------------------------------------------------------------


  energy-cutoff  :      350.00
  volume of cell :      782.41
      direct lattice vectors                 reciprocal lattice vectors
     5.572001436  0.000000000  0.000000000     0.179468726 -0.103616317  0.000000000
     2.786000718  4.825494793  0.000000000     0.000000000  0.207232635  0.000000000
     0.000000000  0.000000000 29.099040242     0.000000000  0.000000000  0.034365395

  length of vectors
     5.572001436  5.572001436 29.099040242     0.207232635  0.207232635  0.034365395


 
 k-points in units of 2pi/SCALE and weight: 0_3_Rh14_Ag7                            
   0.01121680  0.00647602  0.00000000       0.021
   0.00000000  0.01295204  0.00000000       0.010
   0.03365039 -0.00647602  0.00000000       0.021
   0.02243359  0.02590408  0.00000000       0.021
  -0.01121680  0.03238010  0.00000000       0.021
   0.05608398 -0.01942806  0.00000000       0.021
   0.04486718  0.03885612  0.00000000       0.021
  -0.01121680  0.05828418  0.00000000       0.021
   0.07851757 -0.03238010  0.00000000       0.021
   0.06730077  0.05180816  0.00000000       0.021
  -0.01121680  0.08418826  0.00000000       0.021
  -0.07851757  0.05828418  0.00000000       0.021
   0.08973436 -0.14247244  0.00000000       0.021
  -0.01121680  0.11009234  0.00000000       0.021
  -0.05608398  0.04533214  0.00000000       0.021
  -0.06730077 -0.02590408  0.00000000       0.021
  -0.01121680 -0.07123622  0.00000000       0.021
  -0.03365039  0.03238010  0.00000000       0.021
  -0.04486718 -0.01295204  0.00000000       0.021
  -0.01121680 -0.04533214  0.00000000       0.021
  -0.01121680  0.01942806  0.00000000       0.021
  -0.02243359  0.00000000  0.00000000       0.010
   0.03365039  0.01942806  0.00000000       0.021
   0.00000000  0.03885612  0.00000000       0.010
   0.05608398  0.00647602  0.00000000       0.021
   0.02243359  0.05180816  0.00000000       0.021
  -0.03365039  0.04533214  0.00000000       0.021
   0.07851757 -0.00647602  0.00000000       0.021
   0.04486718  0.06476020  0.00000000       0.021
  -0.03365039  0.07123622  0.00000000       0.021
  -0.07851757  0.08418826  0.00000000       0.021
   0.06730077 -0.12952040  0.00000000       0.021
  -0.03365039  0.09714030  0.00000000       0.021
  -0.05608398  0.07123622  0.00000000       0.021
   0.08973436 -0.11656836  0.00000000       0.021
  -0.03365039  0.12304438  0.00000000       0.021
  -0.03365039  0.05828418  0.00000000       0.021
  -0.06730077  0.00000000  0.00000000       0.010
   0.05608398  0.03238010  0.00000000       0.021
   0.00000000  0.06476020  0.00000000       0.010
   0.07851757  0.01942806  0.00000000       0.021
   0.02243359  0.07771224  0.00000000       0.021
  -0.05608398  0.05828418  0.00000000       0.021
  -0.07851757  0.11009234  0.00000000       0.021
   0.04486718 -0.11656836  0.00000000       0.021
  -0.05608398  0.08418826  0.00000000       0.021
  -0.05608398  0.09714030  0.00000000       0.021
   0.06730077 -0.10361632  0.00000000       0.010
   0.07851757  0.04533214  0.00000000       0.021
   0.00000000  0.09066428  0.00000000       0.010
  -0.07851757  0.13599642  0.00000000       0.021
   0.02243359 -0.10361632  0.00000000       0.010
 
 k-points in reciprocal lattice and weights: 0_3_Rh14_Ag7                            
   0.06250000  0.06250000  0.00000000       0.021
   0.00000000  0.06250000  0.00000000       0.010
   0.18750000  0.06250000  0.00000000       0.021
   0.12500000  0.18750000  0.00000000       0.021
  -0.06250000  0.12500000  0.00000000       0.021
   0.31250000  0.06250000  0.00000000       0.021
   0.25000000  0.31250000  0.00000000       0.021
  -0.06250000  0.25000000  0.00000000       0.021
   0.43750000  0.06250000  0.00000000       0.021
   0.37500000  0.43750000  0.00000000       0.021
  -0.06250000  0.37500000  0.00000000       0.021
  -0.43750000  0.06250000  0.00000000       0.021
   0.50000000 -0.43750000  0.00000000       0.021
  -0.06250000  0.50000000  0.00000000       0.021
  -0.31250000  0.06250000  0.00000000       0.021
  -0.37500000 -0.31250000  0.00000000       0.021
  -0.06250000 -0.37500000  0.00000000       0.021
  -0.18750000  0.06250000  0.00000000       0.021
  -0.25000000 -0.18750000  0.00000000       0.021
  -0.06250000 -0.25000000  0.00000000       0.021
  -0.06250000  0.06250000  0.00000000       0.021
  -0.12500000 -0.06250000  0.00000000       0.010
   0.18750000  0.18750000  0.00000000       0.021
   0.00000000  0.18750000  0.00000000       0.010
   0.31250000  0.18750000  0.00000000       0.021
   0.12500000  0.31250000  0.00000000       0.021
  -0.18750000  0.12500000  0.00000000       0.021
   0.43750000  0.18750000  0.00000000       0.021
   0.25000000  0.43750000  0.00000000       0.021
  -0.18750000  0.25000000  0.00000000       0.021
  -0.43750000  0.18750000  0.00000000       0.021
   0.37500000 -0.43750000  0.00000000       0.021
  -0.18750000  0.37500000  0.00000000       0.021
  -0.31250000  0.18750000  0.00000000       0.021
   0.50000000 -0.31250000  0.00000000       0.021
  -0.18750000  0.50000000  0.00000000       0.021
  -0.18750000  0.18750000  0.00000000       0.021
  -0.37500000 -0.18750000  0.00000000       0.010
   0.31250000  0.31250000  0.00000000       0.021
   0.00000000  0.31250000  0.00000000       0.010
   0.43750000  0.31250000  0.00000000       0.021
   0.12500000  0.43750000  0.00000000       0.021
  -0.31250000  0.12500000  0.00000000       0.021
  -0.43750000  0.31250000  0.00000000       0.021
   0.25000000 -0.43750000  0.00000000       0.021
  -0.31250000  0.25000000  0.00000000       0.021
  -0.31250000  0.31250000  0.00000000       0.021
   0.37500000 -0.31250000  0.00000000       0.010
   0.43750000  0.43750000  0.00000000       0.021
   0.00000000  0.43750000  0.00000000       0.010
  -0.43750000  0.43750000  0.00000000       0.021
   0.12500000 -0.43750000  0.00000000       0.010
 
 position of ions in fractional coordinates (direct lattice) 
   0.83333333  0.83333333  0.58022527
   0.16666667  0.16666667  0.70427414
   0.16666667  0.16666667  0.74510493
   0.33333333  0.33333333  0.34365395
   0.83333333  0.83333333  0.34365395
   0.33333333  0.83333333  0.34365395
   0.00000000  0.00000000  0.42182697
   0.50000000  0.00000000  0.42182697
   0.50000000  0.50000000  0.42182697
   0.16666667  0.16666667  0.50056673
   0.83333333  0.33333333  0.34365395
   0.66641521  0.66641521  0.50035150
   0.83380273  0.33309863  0.57885917
   0.33309863  0.33309863  0.57885917
   0.33309863  0.83380273  0.57885917
   0.99963736  0.99963736  0.65980278
   0.50072527  0.99963736  0.65980278
   0.99963736  0.50072527  0.65980278
   0.50000000  0.50000000  0.65707736
   0.66641521  0.16716958  0.50035150
   0.16716958  0.66641521  0.50035150
   0.00000000  0.50000000  0.42182697
 
 position of ions in cartesian coordinates  (Angst):
   6.96500179  4.02124566 16.88399842
   1.39300036  0.80424913 20.49370154
   1.39300036  0.80424913 21.68183826
   2.78600072  1.60849826 10.00000000
   6.96500179  4.02124566 10.00000000
   4.17900108  4.02124566 10.00000000
   0.00000000  0.00000000 12.27476006
   2.78600072  0.00000000 12.27476006
   4.17900108  2.41274740 12.27476006
   1.39300036  0.80424913 14.56601146
   5.57200144  1.60849826 10.00000000
   5.56989977  3.21578313 14.55974839
   5.57396305  1.60736573 16.84424635
   2.78403910  1.60736573 16.84424635
   4.17900108  4.02351074 16.84424635
   8.35497123  4.82374489 19.19962764
   5.57503236  4.82374489 19.19962764
   6.96500179  2.41624720 19.19962764
   4.17900108  2.41274740 19.12032066
   4.17900108  0.80667593 14.55974839
   2.78810239  3.21578313 14.55974839
   1.39300036  2.41274740 12.27476006
 


--------------------------------------------------------------------------------------------------------


 k-point  1 :   0.0625 0.0625 0.0000  plane waves:   11699
 k-point  2 :   0.0000 0.0625 0.0000  plane waves:   11699
 k-point  3 :   0.1875 0.0625 0.0000  plane waves:   11678
 k-point  4 :   0.1250 0.1875 0.0000  plane waves:   11678
 k-point  5 :  -0.0625 0.1250 0.0000  plane waves:   11678
 k-point  6 :   0.3125 0.0625 0.0000  plane waves:   11644
 k-point  7 :   0.2500 0.3125 0.0000  plane waves:   11644
 k-point  8 :  -0.0625 0.2500 0.0000  plane waves:   11644
 k-point  9 :   0.4375 0.0625 0.0000  plane waves:   11613
 k-point 10 :   0.3750 0.4375 0.0000  plane waves:   11613
 k-point 11 :  -0.0625 0.3750 0.0000  plane waves:   11613
 k-point 12 :  -0.4375 0.0625 0.0000  plane waves:   11584
 k-point 13 :   0.5000-0.4375 0.0000  plane waves:   11584
 k-point 14 :  -0.0625 0.5000 0.0000  plane waves:   11584
 k-point 15 :  -0.3125 0.0625 0.0000  plane waves:   11633
 k-point 16 :  -0.3750-0.3125 0.0000  plane waves:   11633
 k-point 17 :  -0.0625-0.3750 0.0000  plane waves:   11633
 k-point 18 :  -0.1875 0.0625 0.0000  plane waves:   11664
 k-point 19 :  -0.2500-0.1875 0.0000  plane waves:   11664
 k-point 20 :  -0.0625-0.2500 0.0000  plane waves:   11664
 k-point 21 :  -0.0625 0.0625 0.0000  plane waves:   11701
 k-point 22 :  -0.1250-0.0625 0.0000  plane waves:   11701
 k-point 23 :   0.1875 0.1875 0.0000  plane waves:   11669
 k-point 24 :   0.0000 0.1875 0.0000  plane waves:   11669
 k-point 25 :   0.3125 0.1875 0.0000  plane waves:   11655
 k-point 26 :   0.1250 0.3125 0.0000  plane waves:   11655
 k-point 27 :  -0.1875 0.1250 0.0000  plane waves:   11655
 k-point 28 :   0.4375 0.1875 0.0000  plane waves:   11637
 k-point 29 :   0.2500 0.4375 0.0000  plane waves:   11637
 k-point 30 :  -0.1875 0.2500 0.0000  plane waves:   11637
 k-point 31 :  -0.4375 0.1875 0.0000  plane waves:   11602
 k-point 32 :   0.3750-0.4375 0.0000  plane waves:   11602
 k-point 33 :  -0.1875 0.3750 0.0000  plane waves:   11602
 k-point 34 :  -0.3125 0.1875 0.0000  plane waves:   11602
 k-point 35 :   0.5000-0.3125 0.0000  plane waves:   11602
 k-point 36 :  -0.1875 0.5000 0.0000  plane waves:   11602
 k-point 37 :  -0.1875 0.1875 0.0000  plane waves:   11673
 k-point 38 :  -0.3750-0.1875 0.0000  plane waves:   11673
 k-point 39 :   0.3125 0.3125 0.0000  plane waves:   11649
 k-point 40 :   0.0000 0.3125 0.0000  plane waves:   11649
 k-point 41 :   0.4375 0.3125 0.0000  plane waves:   11619
 k-point 42 :   0.1250 0.4375 0.0000  plane waves:   11619
 k-point 43 :  -0.3125 0.1250 0.0000  plane waves:   11619
 k-point 44 :  -0.4375 0.3125 0.0000  plane waves:   11603
 k-point 45 :   0.2500-0.4375 0.0000  plane waves:   11603
 k-point 46 :  -0.3125 0.2500 0.0000  plane waves:   11603
 k-point 47 :  -0.3125 0.3125 0.0000  plane waves:   11606
 k-point 48 :   0.3750-0.3125 0.0000  plane waves:   11606
 k-point 49 :   0.4375 0.4375 0.0000  plane waves:   11610
 k-point 50 :   0.0000 0.4375 0.0000  plane waves:   11610
 k-point 51 :  -0.4375 0.4375 0.0000  plane waves:   11600
 k-point 52 :   0.1250-0.4375 0.0000  plane waves:   11600

 maximum and minimum number of plane-waves per node :      1694     1624

 maximum number of plane-waves:     11701
 maximum index in each direction: 
   IXMAX=    8   IYMAX=    8   IZMAX=   44
   IXMIN=   -8   IYMIN=   -8   IZMIN=  -44


 real space projection operators:
  total allocation   :       5807.81 KBytes
  max/ min on nodes  :        840.08        820.55


 parallel 3D FFT for wavefunctions:
    minimum data exchange during FFTs selected (reduces bandwidth)
 parallel 3D FFT for charge:
    minimum data exchange during FFTs selected (reduces bandwidth)


 total amount of memory used by VASP MPI-rank0    83273. kBytes
=======================================================================

   base      :      30000. kBytes
   nonlr-proj:       1871. kBytes
   fftplans  :       1543. kBytes
   grid      :       3152. kBytes
   one-center:         62. kBytes
   wavefun   :      46645. kBytes
 
     INWAV:  cpu time    0.0000: real time    0.0002
 Broyden mixing: mesh for mixing (old mesh)
   NGX = 17   NGY = 17   NGZ = 89
  (NGX  = 56   NGY  = 56   NGZ  =280)
  gives a total of  25721 points

 initial charge density was supplied:
 charge density of overlapping atoms calculated
 number of electron     210.0000000 magnetization 
 keeping initial charge density in first step


--------------------------------------------------------------------------------------------------------


 Maximum index for non-local projection operator          325
 Maximum index for augmentation-charges          427 (set IRDMAX)


--------------------------------------------------------------------------------------------------------


 First call to EWALD:  gamma=   0.192
 Maximum number of real-space cells 5x 5x 1
 Maximum number of reciprocal cells 2x 2x 8

    FEWALD:  cpu time    0.0020: real time    0.0020


--------------------------------------- Iteration      1(   1)  ---------------------------------------


    POTLOK:  cpu time    0.0499: real time    0.0568
    SETDIJ:  cpu time    0.0029: real time    0.0029
     EDDAV:  cpu time   11.4399: real time   11.5165
       DOS:  cpu time    0.0074: real time    0.0074
    --------------------------------------------
      LOOP:  cpu time   11.5002: real time   11.5836

 eigenvalue-minimisations  : 13504
 total energy-change (2. order) : 0.1166222E+04  (-0.7979133E+04)
 number of electron     210.0000000 magnetization 
 augmentation part      210.0000000 magnetization 

 Free energy of the ion-electron system (eV)
  ---------------------------------------------------
  alpha Z        PSCENC =       363.90125391
  Ewald energy   TEWEN  =    107526.32439450
  -Hartree energ DENC   =   -124976.87637172
  -exchange      EXHF   =         0.00000000
  -V(xc)+E(xc)   XCENC  =      -516.59435185
  PAW double counting   =     16585.88916417   -15380.20568694
  entropy T*S    EENTRO =        -0.00725103
  eigenvalues    EBANDS =       755.99993855
  atomic energy  EATOM  =     16807.79110334
  Solvation  Ediel_sol  =         0.00000000
  ---------------------------------------------------
  free energy    TOTEN  =      1166.22219294 eV

  energy without entropy =     1166.22944397  energy(sigma->0) =     1166.22460995


--------------------------------------------------------------------------------------------------------




--------------------------------------- Iteration      1(   2)  ---------------------------------------


     EDDAV:  cpu time   12.4785: real time   12.5619
       DOS:  cpu time    0.0078: real time    0.0078
    --------------------------------------------
      LOOP:  cpu time   12.4863: real time   12.5697

 eigenvalue-minimisations  : 15192
 total energy-change (2. order) :-0.1215054E+04  (-0.1141749E+04)
 number of electron     210.0000000 magnetization 
 augmentation part      210.0000000 magnetization 

 Free energy of the ion-electron system (eV)
  ---------------------------------------------------
  alpha Z        PSCENC =       363.90125391
  Ewald energy   TEWEN  =    107526.32439450
  -Hartree energ DENC   =   -124976.87637172
  -exchange      EXHF   =         0.00000000
  -V(xc)+E(xc)   XCENC  =      -516.59435185
  PAW double counting   =     16585.88916417   -15380.20568694
  entropy T*S    EENTRO =         0.03472466
  eigenvalues    EBANDS =      -459.09651765
  atomic energy  EATOM  =     16807.79110334
  Solvation  Ediel_sol  =         0.00000000
  ---------------------------------------------------
  free energy    TOTEN  =       -48.83228757 eV

  energy without entropy =      -48.86701223  energy(sigma->0) =      -48.84386246


--------------------------------------------------------------------------------------------------------




--------------------------------------- Iteration      1(   3)  ---------------------------------------


     EDDAV:  cpu time   12.4131: real time   12.4947
       DOS:  cpu time    0.0082: real time    0.0082
    --------------------------------------------
      LOOP:  cpu time   12.4213: real time   12.5029

 eigenvalue-minimisations  : 15120
 total energy-change (2. order) :-0.7139273E+02  (-0.6526295E+02)
 number of electron     210.0000000 magnetization 
 augmentation part      210.0000000 magnetization 

 Free energy of the ion-electron system (eV)
  ---------------------------------------------------
  alpha Z        PSCENC =       363.90125391
  Ewald energy   TEWEN  =    107526.32439450
  -Hartree energ DENC   =   -124976.87637172
  -exchange      EXHF   =         0.00000000
  -V(xc)+E(xc)   XCENC  =      -516.59435185
  PAW double counting   =     16585.88916417   -15380.20568694
  entropy T*S    EENTRO =        -0.24116169
  eigenvalues    EBANDS =      -530.21336208
  atomic energy  EATOM  =     16807.79110334
  Solvation  Ediel_sol  =         0.00000000
  ---------------------------------------------------
  free energy    TOTEN  =      -120.22501835 eV

  energy without entropy =     -119.98385666  energy(sigma->0) =     -120.14463112


--------------------------------------------------------------------------------------------------------




--------------------------------------- Iteration      1(   4)  ---------------------------------------


     EDDAV:  cpu time   12.6424: real time   12.7263
       DOS:  cpu time    0.0078: real time    0.0078
    --------------------------------------------
      LOOP:  cpu time   12.6502: real time   12.7341

 eigenvalue-minimisations  : 15592
 total energy-change (2. order) :-0.2303757E+01  (-0.2260985E+01)
 number of electron     210.0000000 magnetization 
 augmentation part      210.0000000 magnetization 

 Free energy of the ion-electron system (eV)
  ---------------------------------------------------
  alpha Z        PSCENC =       363.90125391
  Ewald energy   TEWEN  =    107526.32439450
  -Hartree energ DENC   =   -124976.87637172
  -exchange      EXHF   =         0.00000000
  -V(xc)+E(xc)   XCENC  =      -516.59435185
  PAW double counting   =     16585.88916417   -15380.20568694
  entropy T*S    EENTRO =        -0.24728498
  eigenvalues    EBANDS =      -532.51099551
  atomic energy  EATOM  =     16807.79110334
  Solvation  Ediel_sol  =         0.00000000
  ---------------------------------------------------
  free energy    TOTEN  =      -122.52877507 eV

  energy without entropy =     -122.28149009  energy(sigma->0) =     -122.44634674


--------------------------------------------------------------------------------------------------------




--------------------------------------- Iteration      1(   5)  ---------------------------------------


     EDDAV:  cpu time   12.7736: real time   12.8596
       DOS:  cpu time    0.0082: real time    0.0082
    CHARGE:  cpu time    0.4671: real time    0.4758
    MIXING:  cpu time    0.0028: real time    0.0028
    --------------------------------------------
      LOOP:  cpu time   13.2517: real time   13.3464

 eigenvalue-minimisations  : 15736
 total energy-change (2. order) :-0.8752790E-01  (-0.8746734E-01)
 number of electron     209.9999777 magnetization 
 augmentation part       81.4464170 magnetization 

 Broyden mixing:
  rms(total) = 0.30905E+01    rms(broyden)= 0.30899E+01
  rms(prec ) = 0.31405E+01
  weight for this iteration     100.00

 Free energy of the ion-electron system (eV)
  ---------------------------------------------------
  alpha Z        PSCENC =       363.90125391
  Ewald energy   TEWEN  =    107526.32439450
  -Hartree energ DENC   =   -124976.87637172
  -exchange      EXHF   =         0.00000000
  -V(xc)+E(xc)   XCENC  =      -516.59435185
  PAW double counting   =     16585.88916417   -15380.20568694
  entropy T*S    EENTRO =        -0.24749472
  eigenvalues    EBANDS =      -532.59831367
  atomic energy  EATOM  =     16807.79110334
  Solvation  Ediel_sol  =         0.00000000
  ---------------------------------------------------
  free energy    TOTEN  =      -122.61630297 eV

  energy without entropy =     -122.36880825  energy(sigma->0) =     -122.53380473


--------------------------------------------------------------------------------------------------------




--------------------------------------- Iteration      1(   6)  ---------------------------------------


    POTLOK:  cpu time    0.0217: real time    0.0235
    SETDIJ:  cpu time    0.0027: real time    0.0027
     EDDAV:  cpu time   12.2373: real time   12.3197
       DOS:  cpu time    0.0087: real time    0.0087
    CHARGE:  cpu time    0.4662: real time    0.4751
    MIXING:  cpu time    0.0009: real time    0.0009
    --------------------------------------------
      LOOP:  cpu time   12.7375: real time   12.8305

 eigenvalue-minimisations  : 14960
 total energy-change (2. order) : 0.8071765E+00  (-0.3546371E+01)
 number of electron     209.9999777 magnetization 
 augmentation part       85.3474001 magnetization 

 Broyden mixing:
  rms(total) = 0.27282E+01    rms(broyden)= 0.27276E+01
  rms(prec ) = 0.34855E+01
  weight for this iteration     100.00

 eigenvalues of (default mixing * dielectric matrix)
  average eigenvalue GAMMA=   0.6522
  0.6522

 Free energy of the ion-electron system (eV)
  ---------------------------------------------------
  alpha Z        PSCENC =       363.90125391
  Ewald energy   TEWEN  =    107526.32439450
  -Hartree energ DENC   =   -124839.06644898
  -exchange      EXHF   =         0.00000000
  -V(xc)+E(xc)   XCENC  =      -519.84834095
  PAW double counting   =     17818.40952365   -16637.45402732
  entropy T*S    EENTRO =        -0.06374256
  eigenvalues    EBANDS =      -641.80284207
  atomic energy  EATOM  =     16807.79110334
  Solvation  Ediel_sol  =         0.00000000
  ---------------------------------------------------
  free energy    TOTEN  =      -121.80912649 eV

  energy without entropy =     -121.74538393  energy(sigma->0) =     -121.78787897


--------------------------------------------------------------------------------------------------------




--------------------------------------- Iteration      1(   7)  ---------------------------------------


    POTLOK:  cpu time    0.0165: real time    0.0171
    SETDIJ:  cpu time    0.0025: real time    0.0025
     EDDAV:  cpu time   13.8278: real time   13.9223
       DOS:  cpu time    0.0081: real time    0.0081
    CHARGE:  cpu time    0.4670: real time    0.4759
    MIXING:  cpu time    0.0010: real time    0.0010
    --------------------------------------------
      LOOP:  cpu time   14.3230: real time   14.4269

 eigenvalue-minimisations  : 17736
 total energy-change (2. order) :-0.4899820E+02  (-0.8395572E+01)
 number of electron     209.9999763 magnetization 
 augmentation part       81.0519094 magnetization 

 Broyden mixing:
  rms(total) = 0.56258E+01    rms(broyden)= 0.56251E+01
  rms(prec ) = 0.85491E+01
  weight for this iteration     100.00

 eigenvalues of (default mixing * dielectric matrix)
  average eigenvalue GAMMA=   0.5295
  0.9640  0.0950

 Free energy of the ion-electron system (eV)
  ---------------------------------------------------
  alpha Z        PSCENC =       363.90125391
  Ewald energy   TEWEN  =    107526.32439450
  -Hartree energ DENC   =   -124862.13052401
  -exchange      EXHF   =         0.00000000
  -V(xc)+E(xc)   XCENC  =      -520.21301204
  PAW double counting   =     18169.15360092   -16992.25482921
  entropy T*S    EENTRO =        -0.00089883
  eigenvalues    EBANDS =      -663.37841499
  atomic energy  EATOM  =     16807.79110334
  Solvation  Ediel_sol  =         0.00000000
  ---------------------------------------------------
  free energy    TOTEN  =      -170.80732640 eV

  energy without entropy =     -170.80642757  energy(sigma->0) =     -170.80702679


--------------------------------------------------------------------------------------------------------




--------------------------------------- Iteration      1(   8)  ---------------------------------------


    POTLOK:  cpu time    0.0206: real time    0.0233
    SETDIJ:  cpu time    0.0027: real time    0.0027
     EDDAV:  cpu time   13.2564: real time   13.3471
       DOS:  cpu time    0.0083: real time    0.0083
    CHARGE:  cpu time    0.4661: real time    0.4749
    MIXING:  cpu time    0.0011: real time    0.0011
    --------------------------------------------
      LOOP:  cpu time   13.7552: real time   13.8574

 eigenvalue-minimisations  : 16760
 total energy-change (2. order) : 0.3778479E+02  (-0.5856273E+01)
 number of electron     209.9999776 magnetization 
 augmentation part       84.5696840 magnetization 

 Broyden mixing:
  rms(total) = 0.32997E+01    rms(broyden)= 0.32990E+01
  rms(prec ) = 0.38505E+01
  weight for this iteration     100.00

 eigenvalues of (default mixing * dielectric matrix)
  average eigenvalue GAMMA=   0.5658
  1.3372  0.2387  0.1214

 Free energy of the ion-electron system (eV)
  ---------------------------------------------------
  alpha Z        PSCENC =       363.90125391
  Ewald energy   TEWEN  =    107526.32439450
  -Hartree energ DENC   =   -124920.98150169
  -exchange      EXHF   =         0.00000000
  -V(xc)+E(xc)   XCENC  =      -520.87111490
  PAW double counting   =     18622.15131114   -17453.63227049
  entropy T*S    EENTRO =        -0.02683615
  eigenvalues    EBANDS =      -557.67887943
  atomic energy  EATOM  =     16807.79110334
  Solvation  Ediel_sol  =         0.00000000
  ---------------------------------------------------
  free energy    TOTEN  =      -133.02253978 eV

  energy without entropy =     -132.99570363  energy(sigma->0) =     -133.01359439


--------------------------------------------------------------------------------------------------------




--------------------------------------- Iteration      1(   9)  ---------------------------------------


    POTLOK:  cpu time    0.0178: real time    0.0184
    SETDIJ:  cpu time    0.0027: real time    0.0027
     EDDAV:  cpu time   12.2768: real time   12.3607
       DOS:  cpu time    0.0084: real time    0.0084
    CHARGE:  cpu time    0.4656: real time    0.4741
    MIXING:  cpu time    0.0010: real time    0.0010
    --------------------------------------------
      LOOP:  cpu time   12.7723: real time   12.8654

 eigenvalue-minimisations  : 15088
 total energy-change (2. order) : 0.6876262E+01  (-0.2919617E+01)
 number of electron     209.9999749 magnetization 
 augmentation part       85.5435849 magnetization 

 Broyden mixing:
  rms(total) = 0.26876E+01    rms(broyden)= 0.26873E+01
  rms(prec ) = 0.34594E+01
  weight for this iteration     100.00

 eigenvalues of (default mixing * dielectric matrix)
  average eigenvalue GAMMA=   0.5438
  1.3969  0.4554  0.2184  0.1043

 Free energy of the ion-electron system (eV)
  ---------------------------------------------------
  alpha Z        PSCENC =       363.90125391
  Ewald energy   TEWEN  =    107526.32439450
  -Hartree energ DENC   =   -124816.42263921
  -exchange      EXHF   =         0.00000000
  -V(xc)+E(xc)   XCENC  =      -521.03797203
  PAW double counting   =     19112.00658240   -17948.96470639
  entropy T*S    EENTRO =        -0.19390477
  eigenvalues    EBANDS =      -649.55038985
  atomic energy  EATOM  =     16807.79110334
  Solvation  Ediel_sol  =         0.00000000
  ---------------------------------------------------
  free energy    TOTEN  =      -126.14627810 eV

  energy without entropy =     -125.95237333  energy(sigma->0) =     -126.08164318


--------------------------------------------------------------------------------------------------------




--------------------------------------- Iteration      1(  10)  ---------------------------------------


    POTLOK:  cpu time    0.0164: real time    0.0170
    SETDIJ:  cpu time    0.0025: real time    0.0025
     EDDAV:  cpu time   11.9870: real time   12.0688
       DOS:  cpu time    0.0083: real time    0.0083
    CHARGE:  cpu time    0.4660: real time    0.4747
    MIXING:  cpu time    0.0013: real time    0.0013
    --------------------------------------------
      LOOP:  cpu time   12.4815: real time   12.5726

 eigenvalue-minimisations  : 14568
 total energy-change (2. order) : 0.7595497E+01  (-0.1690953E+01)
 number of electron     209.9999773 magnetization 
 augmentation part       85.0668001 magnetization 

 Broyden mixing:
  rms(total) = 0.13648E+01    rms(broyden)= 0.13644E+01
  rms(prec ) = 0.17540E+01
  weight for this iteration     100.00

 eigenvalues of (default mixing * dielectric matrix)
  average eigenvalue GAMMA=   0.6065
  1.6042  0.5734  0.5734  0.1743  0.1071

 Free energy of the ion-electron system (eV)
  ---------------------------------------------------
  alpha Z        PSCENC =       363.90125391
  Ewald energy   TEWEN  =    107526.32439450
  -Hartree energ DENC   =   -124924.31830338
  -exchange      EXHF   =         0.00000000
  -V(xc)+E(xc)   XCENC  =      -520.93224159
  PAW double counting   =     19364.27536898   -18201.73942336
  entropy T*S    EENTRO =        -0.14586293
  eigenvalues    EBANDS =      -533.70707047
  atomic energy  EATOM  =     16807.79110334
  Solvation  Ediel_sol  =         0.00000000
  ---------------------------------------------------
  free energy    TOTEN  =      -118.55078098 eV

  energy without entropy =     -118.40491806  energy(sigma->0) =     -118.50216001


--------------------------------------------------------------------------------------------------------




--------------------------------------- Iteration      1(  11)  ---------------------------------------


    POTLOK:  cpu time    0.0190: real time    0.0203
    SETDIJ:  cpu time    0.0027: real time    0.0027
     EDDAV:  cpu time   11.9676: real time   12.0476
       DOS:  cpu time    0.0084: real time    0.0084
    CHARGE:  cpu time    0.4677: real time    0.4764
    MIXING:  cpu time    0.0012: real time    0.0012
    --------------------------------------------
      LOOP:  cpu time   12.4668: real time   12.5566

 eigenvalue-minimisations  : 14392
 total energy-change (2. order) : 0.4541589E+00  (-0.1513633E+01)
 number of electron     209.9999768 magnetization 
 augmentation part       84.9619696 magnetization 

 Broyden mixing:
  rms(total) = 0.14299E+01    rms(broyden)= 0.14296E+01
  rms(prec ) = 0.15659E+01
  weight for this iteration     100.00

 eigenvalues of (default mixing * dielectric matrix)
  average eigenvalue GAMMA=   0.5792
  1.8050  0.5743  0.5743  0.1072  0.1665  0.2478

 Free energy of the ion-electron system (eV)
  ---------------------------------------------------
  alpha Z        PSCENC =       363.90125391
  Ewald energy   TEWEN  =    107526.32439450
  -Hartree energ DENC   =   -124919.74801886
  -exchange      EXHF   =         0.00000000
  -V(xc)+E(xc)   XCENC  =      -520.55553949
  PAW double counting   =     19616.45737080   -18454.43426405
  entropy T*S    EENTRO =        -0.16393611
  eigenvalues    EBANDS =      -537.66898613
  atomic energy  EATOM  =     16807.79110334
  Solvation  Ediel_sol  =         0.00000000
  ---------------------------------------------------
  free energy    TOTEN  =      -118.09662207 eV

  energy without entropy =     -117.93268596  energy(sigma->0) =     -118.04197670


--------------------------------------------------------------------------------------------------------




--------------------------------------- Iteration      1(  12)  ---------------------------------------


    POTLOK:  cpu time    0.0166: real time    0.0172
    SETDIJ:  cpu time    0.0026: real time    0.0026
     EDDAV:  cpu time   11.9637: real time   12.0422
       DOS:  cpu time    0.0086: real time    0.0086
    CHARGE:  cpu time    0.4677: real time    0.4763
    MIXING:  cpu time    0.0014: real time    0.0014
    --------------------------------------------
      LOOP:  cpu time   12.4607: real time   12.5484

 eigenvalue-minimisations  : 14352
 total energy-change (2. order) : 0.1307706E+01  (-0.6043773E+00)
 number of electron     209.9999767 magnetization 
 augmentation part       85.1562871 magnetization 

 Broyden mixing:
  rms(total) = 0.10240E+01    rms(broyden)= 0.10237E+01
  rms(prec ) = 0.12727E+01
  weight for this iteration     100.00

 eigenvalues of (default mixing * dielectric matrix)
  average eigenvalue GAMMA=   0.5421
  1.9280  0.5147  0.5147  0.3748  0.1070  0.1778  0.1778

 Free energy of the ion-electron system (eV)
  ---------------------------------------------------
  alpha Z        PSCENC =       363.90125391
  Ewald energy   TEWEN  =    107526.32439450
  -Hartree energ DENC   =   -124899.47726011
  -exchange      EXHF   =         0.00000000
  -V(xc)+E(xc)   XCENC  =      -520.55544334
  PAW double counting   =     19731.80790709   -18571.09898245
  entropy T*S    EENTRO =        -0.18398060
  eigenvalues    EBANDS =      -555.29790804
  atomic energy  EATOM  =     16807.79110334
  Solvation  Ediel_sol  =         0.00000000
  ---------------------------------------------------
  free energy    TOTEN  =      -116.78891569 eV

  energy without entropy =     -116.60493509  energy(sigma->0) =     -116.72758882


--------------------------------------------------------------------------------------------------------




--------------------------------------- Iteration      1(  13)  ---------------------------------------


    POTLOK:  cpu time    0.0200: real time    0.0222
    SETDIJ:  cpu time    0.0027: real time    0.0027
     EDDAV:  cpu time   11.7480: real time   11.8257
       DOS:  cpu time    0.0086: real time    0.0086
    CHARGE:  cpu time    0.4677: real time    0.4769
    MIXING:  cpu time    0.0013: real time    0.0013
    --------------------------------------------
      LOOP:  cpu time   12.2484: real time   12.3375

 eigenvalue-minimisations  : 14064
 total energy-change (2. order) : 0.5049923E+00  (-0.3747534E+00)
 number of electron     209.9999773 magnetization 
 augmentation part       85.1689906 magnetization 

 Broyden mixing:
  rms(total) = 0.43499E+00    rms(broyden)= 0.43477E+00
  rms(prec ) = 0.48213E+00
  weight for this iteration     100.00

 eigenvalues of (default mixing * dielectric matrix)
  average eigenvalue GAMMA=   0.6065
  2.1066  0.6999  0.6999  0.6312  0.2771  0.1070  0.1653  0.1653

 Free energy of the ion-electron system (eV)
  ---------------------------------------------------
  alpha Z        PSCENC =       363.90125391
  Ewald energy   TEWEN  =    107526.32439450
  -Hartree energ DENC   =   -124915.95402413
  -exchange      EXHF   =         0.00000000
  -V(xc)+E(xc)   XCENC  =      -520.61341734
  PAW double counting   =     19812.09411323   -18652.59033926
  entropy T*S    EENTRO =        -0.31899847
  eigenvalues    EBANDS =      -536.91800921
  atomic energy  EATOM  =     16807.79110334
  Solvation  Ediel_sol  =         0.00000000
  ---------------------------------------------------
  free energy    TOTEN  =      -116.28392343 eV

  energy without entropy =     -115.96492495  energy(sigma->0) =     -116.17759060


--------------------------------------------------------------------------------------------------------




[...]
      7      -4.6069      2.00000
      8      -4.3604      2.00000
      9      -4.2745      2.00000
     10      -4.2129      2.00000
     11      -4.1275      2.00000
     12      -4.0161      2.00000
     13      -3.9886      2.00000
     14      -3.8328      2.00000
     15      -3.8047      2.00000
     16      -3.7638      2.00000
     17      -3.7366      2.00000
     18      -3.6540      2.00000
     19      -3.5918      2.00000
     20      -3.5521      2.00000
     21      -3.5048      2.00000
     22      -3.5018      2.00000
     23      -3.4568      2.00000
     24      -3.4052      2.00000
     25      -3.3253      2.00000
     26      -3.2990      2.00000
     27      -3.2344      2.00000
     28      -3.2067      2.00000
     29      -3.1905      2.00000
     30      -3.1748      2.00000
     31      -3.0778      2.00000
     32      -3.0704      2.00000
     33      -3.0177      2.00000
     34      -3.0049      2.00000
     35      -2.9958      2.00000
     36      -2.8841      2.00000
     37      -2.8140      2.00000
     38      -2.7870      2.00000
     39      -2.7176      2.00000
     40      -2.6828      2.00000
     41      -2.6579      2.00000
     42      -2.6160      2.00000
     43      -2.5597      2.00000
     44      -2.5081      2.00000
     45      -2.4697      2.00000
     46      -2.3787      2.00000
     47      -2.3216      2.00000
     48      -2.2684      2.00000
     49      -2.2258      2.00000
     50      -2.1977      2.00000
     51      -2.1580      2.00000
     52      -2.1267      2.00000
     53      -2.0985      2.00000
     54      -2.0728      2.00000
     55      -2.0098      2.00000
     56      -1.9967      2.00000
     57      -1.9584      2.00000
     58      -1.9235      2.00000
     59      -1.8916      2.00000
     60      -1.8586      2.00000
     61      -1.8204      2.00000
     62      -1.7842      2.00000
     63      -1.7571      2.00000
     64      -1.7195      2.00000
     65      -1.6838      2.00000
     66      -1.6622      2.00000
     67      -1.6161      2.00000
     68      -1.5993      2.00000
     69      -1.5556      2.00000
     70      -1.4988      2.00000
     71      -1.4359      2.00000
     72      -1.3826      2.00000
     73      -1.2766      2.00000
     74      -1.2399      2.00000
     75      -1.1938      2.00000
     76      -1.1611      2.00000
     77      -1.1448      2.00000
     78      -1.0900      2.00000
     79      -1.0218      2.00001
     80      -0.9859      2.00001
     81      -0.9782      2.00002
     82      -0.9078      2.00005
     83      -0.8809      2.00007
     84      -0.8281      2.00016
     85      -0.7959      2.00025
     86      -0.7148      2.00073
     87      -0.6885      2.00101
     88      -0.6666      2.00131
     89      -0.6144      2.00240
     90      -0.5821      2.00341
     91      -0.5499      2.00477
     92      -0.5287      2.00589
     93      -0.4263      2.01488
     94      -0.4120      2.01671
     95      -0.3870      2.02030
     96      -0.2870      2.03940
     97      -0.1991      2.05928
     98      -0.1711      2.06468
     99      -0.1406      2.06902
    100      -0.0379      2.05929
    101      -0.0297      2.05604
    102       0.0968      1.92945
    103       0.1899      1.71964
    104       0.2447      1.54671
    105       0.2648      1.47497
    106       0.3031      1.32886
    107       0.4042      0.90836
    108       0.4421      0.75111
    109       0.5119      0.48293
    110       0.5666      0.30493
    111       1.1764     -0.01680
    112       1.5876     -0.00017
    113       1.7855     -0.00001
    114       1.7989     -0.00001
    115       2.2625     -0.00000
    116       2.9134     -0.00000
    117       3.2509     -0.00000
    118       3.5365     -0.00000
    119       3.9182     -0.00000
    120       4.1930     -0.00000
    121       4.6217     -0.00000
    122       4.6959     -0.00000
    123       5.0505     -0.00000
    124       5.4249     -0.00000
    125       5.6255     -0.00000
    126       6.0515     -0.00000
    127       6.8040     -0.00000
    128       7.2375     -0.00000


--------------------------------------------------------------------------------------------------------


 soft charge-density along one line, spin component           1
         0         1         2         3         4         5         6         7         8         9
 total charge-density along one line
 
 pseudopotential strength for first ion, spin component:           1
 -8.106   0.000  -0.000  -0.004  -0.000  -8.171   0.000  -0.000
  0.000  -8.113   0.000   0.000  -0.004   0.000  -8.177   0.000
 -0.000   0.000  -8.127  -0.000   0.000  -0.000   0.000  -8.190
 -0.004   0.000  -0.000  -8.113  -0.000  -0.004   0.000  -0.000
 -0.000  -0.004   0.000  -0.000  -8.106  -0.000  -0.004   0.000
 -8.171   0.000  -0.000  -0.004  -0.000  -8.207   0.000  -0.000
  0.000  -8.177   0.000   0.000  -0.004   0.000  -8.213   0.000
 -0.000   0.000  -8.190  -0.000   0.000  -0.000   0.000  -8.226
 -0.004   0.000  -0.000  -8.177  -0.000  -0.004   0.000  -0.000
 -0.000  -0.004   0.000  -0.000  -8.171  -0.000  -0.004   0.000
 -0.000  -0.000   0.002   0.000   0.000  -0.000  -0.000   0.002
 -0.000  -0.000   0.003   0.000   0.000  -0.000  -0.000   0.003
 -0.000   0.004   0.000   0.000   0.000  -0.000   0.004   0.000
  0.000  -0.000   0.005  -0.000  -0.000   0.000  -0.000   0.005
  0.000   0.000   0.000   0.004  -0.000   0.000   0.000   0.000
 -0.000   0.006   0.000   0.000   0.000  -0.000   0.006   0.000
  0.000  -0.000   0.007  -0.000  -0.000   0.000  -0.000   0.007
  0.000   0.000   0.000   0.006  -0.000   0.000   0.000   0.000
 total augmentation occupancy for first ion, spin component:           1
  4.282   0.000   0.000   0.047   0.000  -2.264   0.000   0.000  -0.107   0.000   0.000   0.000   0.000   0.000   0.008   0.000
  0.000   4.056   0.006   0.000   0.045   0.000  -1.998  -0.005   0.000  -0.106  -0.000  -0.000   0.034   0.001   0.000  -0.000
  0.000   0.006   4.058   0.000   0.004   0.000  -0.005  -2.146   0.000  -0.003   0.007   0.013   0.001   0.024   0.000  -0.000
  0.047   0.000   0.000   4.063   0.000  -0.108   0.000   0.000  -2.004   0.000   0.000   0.000   0.000   0.000   0.034   0.000
  0.000   0.045   0.004   0.000   4.278   0.000  -0.106  -0.003   0.000  -2.261  -0.000  -0.000   0.007  -0.001   0.000   0.000
 -2.264   0.000   0.000  -0.108   0.000   2.193   0.000   0.000   0.160   0.000   0.000   0.000   0.000   0.000  -0.006   0.000
  0.000  -1.998  -0.005   0.000  -0.106   0.000   1.894   0.004   0.000   0.158   0.001  -0.000  -0.028  -0.001   0.000   0.001
  0.000  -0.005  -2.146   0.000  -0.003   0.000   0.004   2.162   0.000   0.002  -0.023   0.002  -0.001  -0.011   0.000   0.000
 -0.107   0.000   0.000  -2.004   0.000   0.160   0.000   0.000   1.899   0.000   0.000   0.000   0.000   0.000  -0.028   0.000
  0.000  -0.106  -0.003   0.000  -2.261   0.000   0.158   0.002   0.000   2.191   0.000  -0.000  -0.005   0.000   0.000   0.000
  0.000  -0.000   0.007   0.000  -0.000   0.000   0.001  -0.023   0.000   0.000   2.426  -0.478  -0.000   0.007   0.000   0.000
  0.000  -0.000   0.013   0.000  -0.000   0.000  -0.000   0.002   0.000  -0.000  -0.478   0.101   0.000  -0.000   0.000  -0.000
  0.000   0.034   0.001   0.000   0.007   0.000  -0.028  -0.001   0.000  -0.005  -0.000   0.000   0.206   0.000   0.000  -0.013
  0.000   0.001   0.024   0.000  -0.001   0.000  -0.001  -0.011   0.000   0.000   0.007  -0.000   0.000   0.202   0.000  -0.000
  0.008   0.000   0.000   0.034   0.000  -0.006   0.000   0.000  -0.028   0.000   0.000   0.000   0.000   0.000   0.206   0.000
  0.000  -0.000  -0.000   0.000   0.000   0.000   0.001   0.000   0.000   0.000   0.000  -0.000  -0.013  -0.000   0.000   0.001
  0.000  -0.000   0.000   0.000   0.000   0.000   0.000   0.000   0.000   0.000   0.000  -0.000  -0.000  -0.012   0.000   0.000
 -0.000   0.000   0.000  -0.000   0.000   0.000   0.000   0.000   0.001   0.000   0.000   0.000   0.000   0.000  -0.013   0.000


------------------------ aborting loop because EDIFF is reached ----------------------------------------


 


 total charge     
 
# of ion       s       p       d       tot
------------------------------------------
    1        0.437   0.352   9.151   9.941
    2        0.909   1.585   0.000   2.494
    3        1.667   3.532   0.000   5.198
    4        0.455   0.328   8.475   9.258
    5        0.452   0.329   8.478   9.259
    6        0.450   0.323   8.483   9.256
    7        0.470   0.447   8.439   9.356
    8        0.470   0.447   8.434   9.351
    9        0.467   0.447   8.442   9.356
   10        0.477   0.444   8.435   9.357
   11        0.456   0.328   8.477   9.260
   12        0.469   0.437   8.451   9.357
   13        0.456   0.416   8.476   9.348
   14        0.455   0.417   8.492   9.364
   15        0.457   0.414   8.489   9.360
   16        0.470   0.425   8.541   9.436
   17        0.470   0.426   8.544   9.439
   18        0.470   0.426   8.541   9.437
   19        0.445   0.319   8.510   9.274
   20        0.464   0.430   8.462   9.356
   21        0.469   0.437   8.452   9.358
   22        0.424   0.403   7.296   8.123
--------------------------------------------------
tot         11.758  13.113 169.065 193.936
 
    CHARGE:  cpu time    0.4701: real time    0.4787
    FORLOC:  cpu time    0.0044: real time    0.0044
    FORNL :  cpu time    1.9769: real time    2.0048
    STRESS:  cpu time    5.9116: real time    5.9940
    FORCOR:  cpu time    0.0215: real time    0.0220
    FORHAR:  cpu time    0.0080: real time    0.0081
    MIXING:  cpu time    0.0039: real time    0.0039
    OFIELD:  cpu time    0.0000: real time    0.0000

  FORCE on cell =-STRESS in cart. coord.  units (eV):
  Direction    XX          YY          ZZ          XY          YZ          ZX
  --------------------------------------------------------------------------------------
  Alpha Z   363.90125   363.90125   363.90125
  Ewald  118654.55157118654.69985************     0.00000    -0.07971     0.00000
  Hartree123054.39123123054.43854************     0.00000     0.01543    -0.00000
  E(xc)   -1086.65542 -1086.66985 -1089.79837     0.00012    -0.01704     0.00001
  Local  ************************247383.49876     0.00206    -0.23938    -0.00017
  n-local  -109.89304  -110.00286  -130.90667     2.74957     0.10121    -0.23394
  augment  1486.47331  1486.60039  1505.88555    -0.00099     0.08701     0.00005
  Kinetic  2887.70680  2887.78921  2902.46140     1.82848     0.14150    -0.47412
  Fock        0.00000     0.00000     0.00000     0.00000     0.00000     0.00000
  -------------------------------------------------------------------------------------
  Total     -10.17607   -10.18676    -5.65174     0.00000     0.00903     0.00000
  in kB     -20.83813   -20.86002   -11.57341     0.00000     0.01850     0.00000
  external pressure =      -17.76 kB  Pullay stress =        0.00 kB


 VOLUME and BASIS-vectors are now :
 -----------------------------------------------------------------------------
  energy-cutoff  :      350.00
  volume of cell :      782.41
      direct lattice vectors                 reciprocal lattice vectors
     5.572001436  0.000000000  0.000000000     0.179468726 -0.103616317  0.000000000
     2.786000718  4.825494793  0.000000000     0.000000000  0.207232635  0.000000000
     0.000000000  0.000000000 29.099040242     0.000000000  0.000000000  0.034365395

  length of vectors
     5.572001436  5.572001436 29.099040242     0.207232635  0.207232635  0.034365395


 FORCES acting on ions
    electron-ion (+dipol)            ewald-force                    non-local-force                 convergence-correction
 -----------------------------------------------------------------------------------------------
   -.199E-05 0.322E+00 -.154E+04   -.185E-10 -.317E+00 0.154E+04   -.108E-18 -.226E-02 -.196E+00   0.953E-09 0.274E-03 0.176E-01
   -.248E-03 0.100E-01 -.130E+04   0.320E-11 0.105E-02 0.129E+04   0.217E-18 -.341E-02 0.105E+02   0.367E-09 0.500E-04 -.206E-02
   0.177E-03 0.985E-02 -.228E+04   0.679E-12 0.335E-03 0.233E+04   0.000E+00 -.150E-01 -.572E+02   0.120E-08 0.187E-04 -.416E-02
   0.500E+01 -.282E+01 0.333E+04   -.519E+01 0.296E+01 -.332E+04   0.710E-01 -.717E-01 -.262E+01   -.465E-04 -.928E-04 -.219E-02
   -.767E-07 0.569E+01 0.333E+04   -.148E-11 -.596E+01 -.332E+04   0.694E-17 0.126E+00 -.266E+01   0.407E-09 0.630E-04 -.205E-02
   0.762E-06 -.675E-01 0.333E+04   -.707E-12 0.353E-01 -.333E+04   0.000E+00 0.271E-01 -.248E+01   -.142E-10 0.123E-03 -.218E-02
   -.330E+00 -.198E+00 0.178E+04   0.315E+00 0.182E+00 -.178E+04   0.410E-01 0.205E-01 -.203E-01   -.144E-03 0.226E-03 0.970E-02
   0.330E+00 -.198E+00 0.178E+04   -.315E+00 0.182E+00 -.178E+04   -.410E-01 0.205E-01 -.203E-01   0.144E-03 0.226E-03 0.970E-02
   -.202E-06 0.788E-02 0.178E+04   -.875E-12 -.503E-12 -.178E+04   -.271E-18 0.276E-03 0.404E-01   -.943E-09 -.307E-03 0.962E-02
   -.130E-04 -.565E+01 0.231E+03   0.295E-10 0.584E+01 -.231E+03   0.000E+00 -.504E-01 -.185E+00   0.434E-10 -.123E-03 0.208E-01
   -.500E+01 -.282E+01 0.333E+04   0.519E+01 0.296E+01 -.332E+04   -.710E-01 -.717E-01 -.262E+01   0.465E-04 -.928E-04 -.219E-02
   -.448E+01 0.309E+01 0.235E+03   0.451E+01 -.327E+01 -.236E+03   0.666E-01 0.104E+00 0.184E+00   -.342E-03 -.798E-04 0.206E-01
   0.759E+00 -.746E+00 -.137E+04   -.873E+00 0.808E+00 0.137E+04   0.118E+00 -.683E-01 0.441E+00   -.782E-03 0.189E-03 0.168E-01
   -.759E+00 -.746E+00 -.137E+04   0.873E+00 0.808E+00 0.137E+04   -.118E+00 -.683E-01 0.441E+00   0.782E-03 0.189E-03 0.168E-01
   0.277E-06 0.118E+01 -.137E+04   0.124E-10 -.131E+01 0.137E+04   -.694E-17 0.140E+00 0.460E+00   -.278E-08 -.638E-03 0.170E-01
   0.833E+02 0.481E+02 -.297E+04   -.827E+02 -.477E+02 0.297E+04   -.612E+00 -.389E+00 0.476E+00   0.328E-03 0.196E-03 0.226E-02
   -.833E+02 0.481E+02 -.297E+04   0.827E+02 -.477E+02 0.297E+04   0.612E+00 -.389E+00 0.476E+00   -.328E-03 0.196E-03 0.226E-02
   0.503E-05 -.962E+02 -.297E+04   0.973E-11 0.955E+02 0.297E+04   0.000E+00 0.738E+00 0.471E+00   -.788E-10 -.383E-03 0.229E-02
   0.242E-05 -.422E-01 -.300E+04   -.136E-10 -.777E-11 0.300E+04   -.867E-18 0.271E-01 0.279E+01   0.126E-08 -.591E-05 0.284E-02
   -.802E-06 -.513E+00 0.230E+03   -.127E-10 0.683E+00 -.230E+03   0.694E-17 -.154E+00 0.894E-01   0.278E-09 0.267E-03 0.205E-01
   0.448E+01 0.309E+01 0.235E+03   -.451E+01 -.327E+01 -.236E+03   -.666E-01 0.104E+00 0.184E+00   0.342E-03 -.798E-04 0.206E-01
   0.228E-05 0.367E+00 0.160E+04   0.333E-11 -.327E+00 -.160E+04   0.000E+00 -.561E-01 -.119E+00   -.409E-10 -.123E-03 0.845E-02
 -----------------------------------------------------------------------------------------------
   -.776E-04 0.330E-01 0.514E+02   0.154E-12 0.222E-15 -.432E-11   0.000E+00 -.334E-01 -.516E+02   -.670E-09 0.947E-04 0.183E+00
 
 
 POSITION                                       TOTAL-FORCE (eV/Angst)
 -----------------------------------------------------------------------------------
      6.96500      4.02125     16.88400        -0.000000      0.002699      0.002612
      1.39300      0.80425     20.49370        -0.000000      0.007731     -0.274405
      1.39300      0.80425     21.68184         0.000000     -0.004737      0.192779
      2.78600      1.60850     10.00000        -0.121267      0.075036      0.117156
      6.96500      4.02125     10.00000         0.000000     -0.147906      0.122091
      4.17900      4.02125     10.00000        -0.000000     -0.005028     -0.026981
      0.00000      0.00000     12.27476         0.025533      0.004896      0.174590
      2.78600      0.00000     12.27476        -0.025533      0.004896      0.174590
      4.17900      2.41275     12.27476         0.000000      0.007863     -0.046398
      1.39300      0.80425     14.56601         0.000000      0.141165     -0.148973
      5.57200      1.60850     10.00000         0.121267      0.075036      0.117156
      5.56990      3.21578     14.55975         0.094332     -0.077451     -0.271573
      5.57396      1.60737     16.84425         0.002484     -0.005635     -0.045493
      2.78404      1.60737     16.84425        -0.002484     -0.005635     -0.045493
      4.17900      4.02351     16.84425         0.000000      0.008233     -0.100755
      8.35497      4.82374     19.19963        -0.015305     -0.001715      0.142905
      5.57503      4.82374     19.19963         0.015305     -0.001715      0.142905
      6.96500      2.41625     19.19963         0.000000      0.015139      0.129868
      4.17900      2.41275     19.12032         0.000000     -0.015154     -0.101884
      4.17900      0.80668     14.55975         0.000000      0.016136     -0.095891
      2.78810      3.21578     14.55975        -0.094332     -0.077451     -0.271573
      1.39300      2.41275     12.27476         0.000000     -0.016403      0.112767
 -----------------------------------------------------------------------------------
    total drift:                               -0.000078     -0.000214     -0.026308


--------------------------------------------------------------------------------------------------------



  FREE ENERGIE OF THE ION-ELECTRON SYSTEM (eV)
  ---------------------------------------------------
  free  energy   TOTEN  =      -116.08050632 eV

  energy  without entropy=     -115.79040761  energy(sigma->0) =     -115.98380675
 


--------------------------------------------------------------------------------------------------------


    POTLOK:  cpu time    0.0197: real time    0.0202


--------------------------------------------------------------------------------------------------------


     LOOP+:  cpu time  430.1252: real time  433.2616
    4ORBIT:  cpu time    0.0000: real time    0.0000
 


 total charge     
 
# of ion       s       p       d       tot
------------------------------------------
    1        0.437   0.352   9.151   9.941
    2        0.909   1.585   0.000   2.494
    3        1.667   3.532   0.000   5.198
    4        0.455   0.328   8.475   9.258
    5        0.452   0.329   8.478   9.259
    6        0.450   0.323   8.483   9.256
    7        0.470   0.447   8.439   9.356
    8        0.470   0.447   8.434   9.351
    9        0.467   0.447   8.442   9.356
   10        0.477   0.444   8.435   9.357
   11        0.456   0.328   8.477   9.260
   12        0.469   0.437   8.451   9.357
   13        0.456   0.416   8.476   9.348
   14        0.455   0.417   8.492   9.364
   15        0.457   0.414   8.489   9.360
   16        0.470   0.425   8.541   9.436
   17        0.470   0.426   8.544   9.439
   18        0.470   0.426   8.541   9.437
   19        0.445   0.319   8.510   9.274
   20        0.464   0.430   8.462   9.356
   21        0.469   0.437   8.452   9.358
   22        0.424   0.403   7.296   8.123
--------------------------------------------------
tot         11.758  13.113 169.065 193.936
 

 total amount of memory used by VASP MPI-rank0    83273. kBytes
=======================================================================

   base      :      30000. kBytes
   nonlr-proj:       1871. kBytes
   fftplans  :       1543. kBytes
   grid      :       3152. kBytes
   one-center:         62. kBytes
   wavefun   :      46645. kBytes
 
  
  
 General timing and accounting informations for this job:
 ========================================================
  
                  Total CPU time used (sec):      438.777
                            User time (sec):      409.859
                          System time (sec):       28.919
                         Elapsed time (sec):      442.412
  
                   Maximum memory used (kb):      131708.
                   Average memory used (kb):           0.
  
                          Minor page faults:        72391
                          Major page faults:            0
                 Voluntary context switches:          389
