       N       E                     dE             d eps       ncg     rms          rms(c)
DAV:   1     0.977694499142E+03    0.97769E+03   -0.56604E+04 10024   0.103E+03
DAV:   2    -0.184407834612E+02   -0.99614E+03   -0.91654E+03 12296   0.261E+02
DAV:   3    -0.949854018253E+02   -0.76545E+02   -0.69063E+02 11856   0.705E+01
DAV:   4    -0.982491701940E+02   -0.32638E+01   -0.31209E+01 13552   0.152E+01
DAV:   5    -0.983348511658E+02   -0.85681E-01   -0.85370E-01 12944   0.239E+00    0.429E+01
DAV:   6    -0.947591344531E+02    0.35757E+01   -0.19852E+01 11384   0.197E+01    0.324E+01
DAV:   7    -0.138011629270E+03   -0.43252E+02   -0.12678E+02 15168   0.760E+01    0.551E+01
DAV:   8    -0.118581115511E+03    0.19431E+02   -0.49883E+01 14296   0.455E+01    0.433E+01
DAV:   9    -0.107410000848E+03    0.11171E+02   -0.43646E+01 16392   0.443E+01    0.295E+01
DAV:  10    -0.936495897594E+02    0.13760E+02   -0.24980E+01 13304   0.319E+01    0.129E+01
DAV:  11    -0.922791627696E+02    0.13704E+01   -0.95870E+00 14688   0.163E+01    0.740E+00
DAV:  12    -0.922258214121E+02    0.53341E-01   -0.87277E-01 12136   0.417E+00    0.557E+00
DAV:  13    -0.921639921986E+02    0.61829E-01   -0.88122E-01 12216   0.452E+00    0.400E+00
DAV:  14    -0.921815299335E+02   -0.17538E-01   -0.16647E-01 13336   0.194E+00    0.375E+00
DAV:  15    -0.920926742400E+02    0.88856E-01   -0.13414E-01 14000   0.183E+00    0.174E+00
DAV:  16    -0.920905905719E+02    0.20837E-02   -0.83762E-02 11872   0.138E+00    0.107E+00
DAV:  17    -0.920811479259E+02    0.94426E-02   -0.27382E-02 11504   0.866E-01    0.530E-01
DAV:  18    -0.920807609301E+02    0.38700E-03   -0.34797E-03 11024   0.320E-01    0.465E-01
DAV:  19    -0.920789744792E+02    0.17865E-02   -0.51385E-03 12744   0.346E-01    0.281E-01
DAV:  20    -0.920793165782E+02   -0.34210E-03   -0.22157E-03 12672   0.240E-01    0.293E-01
DAV:  21    -0.920787811159E+02    0.53546E-03   -0.56855E-04 12304   0.115E-01    0.185E-01
DAV:  22    -0.920785722157E+02    0.20890E-03   -0.28963E-04 11368   0.703E-02    0.103E-01
DAV:  23    -0.920785202726E+02    0.51943E-04   -0.25561E-04 12384   0.672E-02    0.438E-02
DAV:  24    -0.920785323867E+02   -0.12114E-04   -0.22642E-05  6072   0.236E-02    0.298E-02
DAV:  25    -0.920785547047E+02   -0.22318E-04   -0.14780E-05  6240   0.185E-02    0.348E-02
DAV:  26    -0.920785772016E+02   -0.22497E-04   -0.10594E-05  6008   0.161E-02    0.190E-02
DAV:  27    -0.920786004870E+02   -0.23285E-04   -0.50343E-06  6048   0.861E-03    0.113E-02
DAV:  28    -0.920786172195E+02   -0.16732E-04   -0.19931E-06  5832   0.561E-03    0.642E-03
DAV:  29    -0.920786416047E+02   -0.24385E-04   -0.18564E-06  6016   0.487E-03    0.383E-03
DAV:  30    -0.920786708306E+02   -0.29226E-04   -0.27219E-06  6192   0.523E-03    0.616E-03
DAV:  31    -0.920786829563E+02   -0.12126E-04   -0.10163E-06  6088   0.355E-03    0.468E-03
DAV:  32    -0.920786886899E+02   -0.57335E-05   -0.68016E-07  5808   0.248E-03
   1 F= -.92078663E+02 E0= -.92066085E+02  d E =-.377347E-01
